<VTKFile type="UnstructuredGrid" version="0.1" byte_order="LittleEndian" header_type="UInt32" compressor="vtkZLibDataCompressor">
<UnstructuredGrid><Piece NumberOfPoints="285" NumberOfCells="116">
<PointData>
<DataArray Name="S11" type="Float64" format="ASCII">
-9.050710000000000477e+00
1.270850000000000080e+01
1.285199999999999898e+00
8.424250000000000682e+00
-1.310180000000000078e+01
1.229079999999999950e+00
-4.371959999999999980e+01
2.766570000000000107e+01
3.581830000000000069e+01
-5.458950000000000102e+01
1.038949999999999996e+01
3.603130000000000166e+01
-4.972189999999999799e+01
-1.085040000000000049e+01
-1.185810000000000031e+01
1.377909999999999968e+01
6.892660000000000231e+00
-8.703440000000000509e+00
-4.983389999999999986e+01
3.612570000000000192e+01
3.582030000000000314e+01
-5.459089999999999776e+01
-1.345790000000000042e+01
-4.371739999999999782e+01
8.547850000000000392e+00
2.765680000000000049e+01
1.561160000000000103e+00
1.227549999999999919e+00
-4.453149999999999977e+02
2.512239999999999895e+02
3.612570000000000192e+01
3.622050000000000125e+01
-4.983389999999999986e+01
-4.994579999999999842e+01
-1.151720000000000077e+01
1.417619999999999969e+01
-1.793769999999999953e+01
-2.905750000000000099e+01
-4.833279999999999887e+01
-2.052530000000000143e+01
1.377909999999999968e+01
-1.185810000000000031e+01
-2.273290000000000077e+01
-5.265800000000000125e+01
-5.062660000000000338e+01
-1.877909999999999968e+01
-3.661339999999999861e+01
-3.719010000000000105e+01
-1.959240000000000137e+01
-1.751650000000000063e+01
7.969000000000000528e-01
4.525979999999999670e+00
4.995009999999999728e+00
-4.180539999999999951e-02
-1.877909999999999968e+01
-5.062660000000000338e+01
-2.273290000000000077e+01
-5.265800000000000125e+01
1.172590000000000021e+00
1.145540000000000003e+00
6.390160000000000284e-01
1.425010000000000110e+00
-6.559819999999999540e-02
6.749730000000000452e-01
6.180320000000000258e-01
1.118309999999999998e-01
7.964599999999999458e-01
8.841569999999999985e-02
5.947759999999999714e-01
2.949359999999999760e-01
1.011100000000000110e+00
-8.353789999999999827e-01
-9.219910000000000605e-02
1.494580000000000020e+00
6.180320000000000258e-01
1.172590000000000021e+00
1.425010000000000110e+00
6.749730000000000452e-01
3.532869999999999955e+00
4.225459999999999994e+00
5.370210000000000150e+00
-3.658259999999999934e+01
-2.523620000000000019e+01
1.435660000000000025e+01
1.970159999999999911e+01
1.361359999999999992e+01
-1.352670000000000039e+00
3.524029999999999774e+01
3.126729999999999876e+01
2.326269999999999882e+01
1.776970000000000027e+01
5.365940000000000154e+00
-1.414250000000000007e+01
-1.860539999999999949e+01
-2.419790000000000063e+01
-3.152609999999999957e+01
-7.351140000000000452e-01
2.554310000000000191e-01
5.362619999999999720e+00
1.361400000000000077e+01
-3.659400000000000119e+01
-2.482049999999999912e+01
-1.430710000000000015e+01
-1.889499999999999957e+01
-2.422129999999999939e+01
-3.155999999999999872e+01
1.399859999999999971e+01
1.973549999999999827e+01
3.525690000000000168e+01
3.127990000000000137e+01
2.351350000000000051e+01
1.816079999999999828e+01
5.369489999999999874e+00
4.172049999999999592e+00
-9.086709999999999354e+01
-1.723700000000000045e+02
-2.769479999999999791e+02
-3.667160000000000082e+02
-4.022780000000000200e+02
-3.667090000000000032e+02
-2.769089999999999918e+02
-1.722849999999999966e+02
-9.075719999999999743e+01
-9.035939999999999372e+01
-1.810740000000000123e+02
-3.003629999999999995e+02
-4.040129999999999768e+02
-4.040129999999999768e+02
-3.003629999999999995e+02
-1.810740000000000123e+02
-9.035909999999999798e+01
5.461809999999999832e+01
1.052920000000000016e+02
1.805399999999999920e+02
2.466570000000000107e+02
2.730110000000000241e+02
2.466620000000000061e+02
1.805610000000000070e+02
1.053289999999999935e+02
5.464330000000000354e+01
2.283110000000000070e+02
1.705149999999999864e+02
1.037789999999999964e+02
5.756909999999999883e+01
5.756889999999999930e+01
1.037789999999999964e+02
1.705149999999999864e+02
2.283110000000000070e+02
-6.361819999999999808e+00
5.464330000000000354e+01
1.053289999999999935e+02
1.805600000000000023e+02
2.466579999999999870e+02
2.730070000000000050e+02
2.466630000000000109e+02
1.805800000000000125e+02
1.053649999999999949e+02
5.466859999999999786e+01
-9.097729999999999961e+01
-1.724550000000000125e+02
-2.769850000000000136e+02
-3.667149999999999750e+02
-4.022679999999999723e+02
-3.667090000000000032e+02
-2.769460000000000264e+02
-1.723700000000000045e+02
-9.086709999999999354e+01
5.359390000000000320e+00
5.362630000000000230e+00
-3.160229999999999961e+01
-2.421799999999999997e+01
-1.890050000000000097e+01
-1.209580000000000055e+01
1.450590000000000046e+00
1.655570000000000164e+01
2.354009999999999891e+01
3.125690000000000168e+01
3.528139999999999787e+01
-2.069559999999999889e+01
-3.264970000000000283e+01
-7.351140000000000452e-01
-1.430710000000000015e+01
-1.889499999999999957e+01
-2.422129999999999939e+01
-3.155999999999999872e+01
3.525690000000000168e+01
3.127990000000000137e+01
2.351350000000000051e+01
1.816079999999999828e+01
-3.606479999999999819e+01
-2.994069999999999965e+01
-1.632010000000000005e+01
-1.077059999999999995e+01
1.183629999999999960e+01
1.829169999999999874e+01
1.361860000000000070e+01
1.065210000000000079e+01
-8.418309999999999960e+00
-1.528619999999999912e+01
-2.427270000000000039e+01
-2.634850000000000136e+01
1.784450000000000092e+00
1.744050000000000100e+00
-1.632010000000000005e+01
-2.994069999999999965e+01
1.183629999999999960e+01
-1.077059999999999995e+01
-3.606479999999999819e+01
1.829169999999999874e+01
-2.394460000000000033e+00
-4.586409999999999876e+00
9.603690000000000282e+00
2.263160000000000061e+00
-6.601599999999999691e-01
-7.943130000000000468e-01
-1.739680000000000115e-01
-1.769959999999999867e-01
-8.930540000000000145e-01
-8.266219999999999679e-01
2.422860000000000014e-01
-2.424059999999999881e+00
-3.688740000000000130e+00
8.008850000000000691e+00
7.305650000000000199e-01
-3.353289999999999882e-01
-1.769959999999999867e-01
-6.601599999999999691e-01
-4.586409999999999876e+00
2.263160000000000061e+00
-2.394460000000000033e+00
9.603690000000000282e+00
-4.012379999999999836e-01
-1.279910000000000103e+00
-1.625420000000000087e+00
-2.027439999999999909e+00
-5.519659999999999567e-01
-1.257050000000000001e+00
-1.623869999999999925e+00
-2.017929999999999779e+00
1.144969999999999999e+01
6.314930000000000376e+00
1.159219999999999917e+00
-4.224910000000000387e+00
-4.224910000000000387e+00
1.159210000000000074e+00
6.314939999999999998e+00
1.144960000000000022e+01
9.305939999999999657e+00
1.043099999999999916e+01
1.594089999999999918e+01
2.109809999999999874e+01
2.330450000000000088e+01
2.110109999999999886e+01
1.594800000000000040e+01
1.043319999999999936e+01
9.297050000000000480e+00
9.288190000000000168e+00
1.043549999999999933e+01
1.595529999999999937e+01
2.110470000000000113e+01
2.330659999999999954e+01
2.110170000000000101e+01
1.594819999999999993e+01
1.043329999999999913e+01
9.297060000000000102e+00
-2.007969999999999811e+00
-1.623939999999999939e+00
-1.297889999999999988e+00
-5.658940000000000081e-01
-5.519659999999999567e-01
-1.257050000000000001e+00
-1.623869999999999925e+00
-2.017929999999999779e+00
2.416380000000000194e+00
-1.146009999999999973e+00
-1.091669999999999918e+00
2.144880000000000120e+00
-1.146009999999999973e+00
2.416380000000000194e+00
-1.611939999999999928e+00
3.058429999999999982e+00
-1.725510000000000099e+00
2.727520000000000167e+00
-1.611930000000000085e+00
3.058429999999999982e+00
</DataArray>
<DataArray Name="S22" type="Float64" format="ASCII">
-3.035699999999999932e+01
3.446439999999999770e+01
8.271969999999999601e+00
5.784890000000000043e+01
-5.964500000000000313e+01
1.569229999999999947e+01
-1.932510000000000048e+02
1.763729999999999905e+02
1.863990000000000009e+02
-2.457160000000000082e+02
5.083290000000000219e+01
1.931630000000000109e+02
-2.254830000000000041e+02
-4.804939999999999856e+01
-5.035399999999999920e+01
5.521359999999999957e+01
3.215849999999999653e+01
-3.104510000000000147e+01
-2.257969999999999970e+02
1.934430000000000121e+02
1.864019999999999868e+02
-2.457179999999999893e+02
-5.795609999999999928e+01
-1.932560000000000002e+02
5.560679999999999978e+01
1.763729999999999905e+02
8.897420000000000329e+00
1.569379999999999953e+01
-9.091840000000000543e+01
5.589929999999999666e+01
1.934430000000000121e+02
1.937249999999999943e+02
-2.257969999999999970e+02
-2.261129999999999995e+02
-3.915420000000000300e+01
4.187330000000000041e+01
-2.186489999999999867e+01
6.551789999999999559e+00
9.902129999999999654e+00
-3.125250000000000128e+01
5.521359999999999957e+01
-5.035399999999999920e+01
-3.664929999999999666e+01
1.347589999999999932e+01
-7.067949999999999733e+00
-1.812470000000000070e+01
1.317200000000000060e+01
-4.567879999999999718e+00
-3.003640000000000043e+01
-1.542379999999999995e+01
1.426169999999999938e+00
3.203390000000000182e+00
4.405640000000000001e+00
1.460040000000000004e+00
-1.812470000000000070e+01
-7.067929999999999602e+00
-3.664929999999999666e+01
1.347589999999999932e+01
2.473120000000000207e+00
2.439220000000000166e+00
8.194660000000000277e-01
3.155829999999999913e+00
-1.483720000000000039e-01
1.257230000000000070e+00
9.469819999999999904e-01
2.599730000000000096e-01
1.616640000000000077e+00
2.428450000000000220e+00
1.056840000000000002e+00
3.881589999999999763e-01
1.309390000000000054e+00
-3.555519999999999792e-01
1.056519999999999904e+00
1.732429999999999914e+00
9.469830000000000192e-01
2.473120000000000207e+00
3.155819999999999848e+00
1.257230000000000070e+00
5.962659999999999627e+00
2.170499999999999829e+01
2.982400000000000162e+01
-1.479240000000000066e+02
-1.032360000000000042e+02
9.889600000000000080e+01
1.390480000000000018e+02
2.654500000000000171e+01
-1.365169999999999995e+00
1.795010000000000048e+02
1.438199999999999932e+02
1.072890000000000015e+02
7.603180000000000405e+01
1.495599999999999952e+01
-7.355910000000000082e+01
-1.047369999999999948e+02
-1.390860000000000127e+02
-1.773750000000000000e+02
-1.802570000000000006e+00
3.115279999999999827e+00
1.496480000000000032e+01
2.654560000000000031e+01
-1.479219999999999970e+02
-1.024680000000000035e+02
-7.544759999999999422e+01
-1.053559999999999945e+02
-1.392189999999999941e+02
-1.775260000000000105e+02
9.825979999999999848e+01
1.390709999999999980e+02
1.796239999999999952e+02
1.439180000000000064e+02
1.078269999999999982e+02
7.844140000000000157e+01
2.981040000000000134e+01
2.156559999999999988e+01
-2.562919999999999732e+02
-2.340819999999999936e+02
-1.755720000000000027e+02
-1.153559999999999945e+02
-9.011629999999999541e+01
-1.153490000000000038e+02
-1.755279999999999916e+02
-2.339350000000000023e+02
-2.560489999999999782e+02
-2.823820000000000050e+02
-2.618999999999999773e+02
-1.930180000000000007e+02
-1.211230000000000047e+02
-1.211230000000000047e+02
-1.930180000000000007e+02
-2.618999999999999773e+02
-2.823809999999999718e+02
1.888600000000000136e+02
1.666690000000000111e+02
1.199639999999999986e+02
7.177150000000000318e+01
5.157139999999999702e+01
7.177200000000000557e+01
1.199759999999999991e+02
1.667319999999999993e+02
1.889730000000000132e+02
7.298109999999999786e+01
1.138529999999999944e+02
1.540080000000000098e+02
1.750889999999999986e+02
1.750889999999999986e+02
1.540080000000000098e+02
1.138529999999999944e+02
7.298109999999999786e+01
1.875969999999999871e+01
1.889730000000000132e+02
1.667319999999999993e+02
1.199759999999999991e+02
7.177100000000000080e+01
5.157000000000000028e+01
7.177150000000000318e+01
1.199879999999999995e+02
1.667949999999999875e+02
1.890869999999999891e+02
-2.565360000000000014e+02
-2.342280000000000086e+02
-1.756150000000000091e+02
-1.153599999999999994e+02
-9.011440000000000339e+01
-1.153539999999999992e+02
-1.755709999999999980e+02
-2.340819999999999936e+02
-2.562930000000000064e+02
1.497380000000000067e+01
1.496470000000000056e+01
-1.776939999999999884e+02
-1.393249999999999886e+02
-1.050420000000000016e+02
-7.130079999999999529e+01
1.410959999999999992e+00
7.500830000000000553e+01
1.075319999999999965e+02
1.439879999999999995e+02
1.797649999999999864e+02
-1.060939999999999994e+00
-6.466920000000000002e+00
-1.802580000000000071e+00
-7.544759999999999422e+01
-1.053559999999999945e+02
-1.392189999999999941e+02
-1.775260000000000105e+02
1.796239999999999952e+02
1.439180000000000064e+02
1.078269999999999982e+02
7.844140000000000157e+01
-7.143390000000000128e+00
-8.691999999999999726e-01
-3.406600000000000250e+01
-2.754410000000000025e+01
3.637259999999999849e+01
3.998279999999999745e+01
3.083399999999999963e+01
3.334239999999999782e+01
-2.330300000000000082e+01
-3.248129999999999740e+01
-2.682360000000000078e+00
-4.211540000000000283e+00
2.516729999999999801e-01
1.215260000000000007e+00
-3.406600000000000250e+01
-8.691940000000000222e-01
3.637270000000000181e+01
-2.754410000000000025e+01
-7.143390000000000128e+00
3.998279999999999745e+01
1.215070000000000039e-01
8.999850000000000350e-01
8.023989999999999512e+00
7.180019999999999847e+00
-1.871029999999999971e+00
-2.405209999999999848e+00
-4.195059999999999900e-01
-8.348360000000000225e-01
-1.123480000000000034e+00
-1.378700000000000037e+00
-1.126159999999999939e-01
-2.671889999999999876e+00
1.188430000000000097e+00
6.756439999999999557e+00
5.598390000000000200e+00
-1.183580000000000076e+00
-8.348360000000000225e-01
-1.871029999999999971e+00
8.999869999999999814e-01
7.180010000000000225e+00
1.215070000000000039e-01
8.023989999999999512e+00
-1.312170000000000059e+00
-2.349959999999999827e+00
-2.707599999999999785e+00
8.811719999999999553e-01
-1.787940000000000085e+00
-2.294789999999999885e+00
-2.704860000000000042e+00
8.963809999999999834e-01
4.451629999999999754e+00
6.211369999999999614e+00
1.177759999999999962e+01
1.669780000000000086e+01
1.669780000000000086e+01
1.177759999999999962e+01
6.211389999999999745e+00
4.451600000000000001e+00
2.294229999999999947e+01
2.469729999999999848e+01
2.177629999999999910e+01
1.762430000000000163e+01
1.581980000000000075e+01
1.762340000000000018e+01
2.177049999999999841e+01
2.467889999999999873e+01
2.291550000000000153e+01
2.288879999999999981e+01
2.466029999999999944e+01
2.176450000000000173e+01
1.762219999999999942e+01
1.581969999999999921e+01
1.762310000000000088e+01
2.177019999999999911e+01
2.467869999999999919e+01
2.291540000000000177e+01
9.136339999999999462e-01
-2.703349999999999920e+00
-2.375640000000000196e+00
-2.170519999999999783e+00
-1.787949999999999928e+00
-2.294799999999999951e+00
-2.704860000000000042e+00
8.963759999999999506e-01
2.854750000000000121e+00
3.408110000000000195e+00
3.278350000000000097e+00
2.716450000000000031e+00
3.408110000000000195e+00
2.854740000000000055e+00
2.697769999999999779e+00
2.524150000000000116e+00
2.862429999999999808e+00
1.890379999999999949e+00
2.697769999999999779e+00
2.524150000000000116e+00
</DataArray>
<DataArray Name="S33" type="Float64" format="ASCII">
-7.865709999999999980e+00
9.478440000000000865e+00
2.458969999999999878e+00
6.795099999999999696e+00
-7.696729999999999627e+00
4.724960000000000271e+00
-2.749599999999999866e+01
2.350110000000000099e+01
2.222579999999999956e+01
-3.857600000000000051e+01
1.375009999999999977e+01
2.396590000000000131e+01
-3.071320000000000050e+01
-1.352200000000000024e+01
-1.481739999999999924e+01
1.650639999999999930e+01
7.575490000000000279e+00
-8.212270000000000181e+00
-3.117350000000000065e+01
2.443090000000000117e+01
2.222680000000000078e+01
-3.857670000000000243e+01
-7.559700000000000308e+00
-2.749540000000000006e+01
6.431110000000000326e+00
2.349690000000000012e+01
2.750939999999999941e+00
4.725019999999999776e+00
-7.340550000000000352e+01
2.910640000000000072e+01
2.443090000000000117e+01
2.489730000000000132e+01
-3.117350000000000065e+01
-3.163449999999999918e+01
-1.134050000000000047e+01
1.207259999999999955e+01
-5.547760000000000247e+00
-7.647439999999999793e-02
-4.753459999999999575e+00
-9.058070000000000732e+00
1.650639999999999930e+01
-1.481739999999999924e+01
-1.037729999999999997e+01
-2.657000000000000028e+00
-8.525159999999999627e+00
-3.759860000000000202e+00
3.621530000000000027e-01
-5.306460000000000399e+00
-9.665440000000000254e+00
-4.664749999999999730e+00
3.177420000000000244e-01
2.219529999999999781e+00
2.550349999999999895e+00
4.237040000000000251e-02
-3.759860000000000202e+00
-8.525159999999999627e+00
-1.037729999999999997e+01
-2.657000000000000028e+00
9.922320000000000029e-01
9.358600000000000252e-01
4.462070000000000203e-01
1.403310000000000057e+00
-3.741400000000000281e-02
6.064380000000000326e-01
4.386340000000000239e-01
8.067080000000000084e-02
4.520390000000000241e-01
8.514180000000000081e-01
4.626020000000000132e-01
2.686020000000000074e-01
7.889730000000000354e-01
-2.862870000000000137e-01
3.384550000000000058e-01
8.386649999999999938e-01
4.386340000000000239e-01
9.922330000000000316e-01
1.403310000000000057e+00
6.064370000000000038e-01
2.577290000000000081e+00
6.866139999999999688e+00
9.439830000000000609e+00
-2.177370000000000161e+01
-1.468040000000000056e+01
1.172799999999999976e+01
1.710660000000000025e+01
1.228539999999999921e+01
-8.697629999999999528e-01
2.563309999999999889e+01
2.159479999999999933e+01
1.739280000000000115e+01
1.652179999999999893e+01
6.214900000000000091e+00
-1.369459999999999944e+01
-1.369229999999999947e+01
-1.487979999999999947e+01
-1.765859999999999985e+01
-5.751519999999999966e-01
9.924100000000000144e-01
6.209240000000000315e+00
1.228570000000000029e+01
-2.176389999999999958e+01
-1.434399999999999942e+01
-1.471909999999999918e+01
-1.397949999999999982e+01
-1.489339999999999975e+01
-1.764120000000000132e+01
1.143829999999999991e+01
1.711380000000000123e+01
2.559759999999999991e+01
2.160219999999999985e+01
1.765380000000000038e+01
1.766240000000000165e+01
9.434799999999999187e+00
6.820579999999999643e+00
-4.292360000000000042e+01
-4.995400000000000063e+01
-5.544559999999999889e+01
-5.899680000000000035e+01
-6.025509999999999877e+01
-5.899790000000000134e+01
-5.543119999999999692e+01
-4.988709999999999667e+01
-4.275800000000000267e+01
-5.059810000000000230e+01
-6.091080000000000183e+01
-6.770409999999999684e+01
-7.191630000000000678e+01
-7.191630000000000678e+01
-6.770409999999999684e+01
-6.091080000000000183e+01
-5.059790000000000276e+01
2.521020000000000039e+01
2.826409999999999911e+01
3.171750000000000114e+01
3.366859999999999786e+01
3.434579999999999700e+01
3.366420000000000101e+01
3.171440000000000126e+01
2.828989999999999938e+01
2.531040000000000134e+01
2.852199999999999847e+01
2.686390000000000100e+01
2.400799999999999912e+01
2.202299999999999969e+01
2.202289999999999992e+01
2.400799999999999912e+01
2.686390000000000100e+01
2.852199999999999847e+01
8.063650000000000873e+00
2.531050000000000111e+01
2.829009999999999891e+01
3.171450000000000102e+01
3.366310000000000002e+01
3.434120000000000061e+01
3.365879999999999939e+01
3.171130000000000138e+01
2.831579999999999941e+01
2.541090000000000160e+01
-4.308939999999999770e+01
-5.002100000000000080e+01
-5.545940000000000225e+01
-5.899300000000000210e+01
-6.024880000000000280e+01
-5.899410000000000309e+01
-5.544500000000000028e+01
-4.995409999999999684e+01
-4.292369999999999663e+01
6.203739999999999810e+00
6.209240000000000315e+00
-1.763269999999999982e+01
-1.491740000000000066e+01
-1.384859999999999935e+01
-1.266539999999999999e+01
7.183619999999999450e-01
1.586860000000000070e+01
1.756510000000000105e+01
2.161110000000000042e+01
2.557150000000000034e+01
-6.781379999999999353e-02
-5.183130000000000237e+00
-5.751530000000000253e-01
-1.471909999999999918e+01
-1.397949999999999982e+01
-1.489339999999999975e+01
-1.764120000000000132e+01
2.559759999999999991e+01
2.160219999999999985e+01
1.765380000000000038e+01
1.766240000000000165e+01
-5.524890000000000079e+00
-1.995840000000000058e+00
-1.001319999999999943e+01
-5.114690000000000403e+00
8.297850000000000392e+00
1.315869999999999962e+01
9.311830000000000496e+00
7.279230000000000089e+00
-3.663349999999999884e+00
-9.228999999999999204e+00
-2.030450000000000088e+00
-3.024439999999999795e+00
4.084550000000000125e-01
5.721009999999999707e-01
-1.001319999999999943e+01
-1.995840000000000058e+00
8.297850000000000392e+00
-5.114690000000000403e+00
-5.524890000000000079e+00
1.315869999999999962e+01
2.929109999999999769e-01
-1.523879999999999901e+00
6.313690000000000246e+00
2.335199999999999942e+00
-6.465840000000000476e-01
-8.963839999999999586e-01
-1.600119999999999876e-01
-2.855199999999999960e-01
-6.538859999999999673e-01
-5.368990000000000151e-01
1.210809999999999942e-01
-4.519659999999999789e-01
-9.218910000000000160e-01
5.394059999999999633e+00
1.537029999999999896e+00
-2.884579999999999922e-01
-2.855199999999999960e-01
-6.465830000000000188e-01
-1.523879999999999901e+00
2.335199999999999942e+00
2.929109999999999769e-01
6.313690000000000246e+00
-3.420640000000000125e+00
-6.551980000000000359e+00
-8.768459999999999255e+00
-8.779400000000000759e+00
-3.506219999999999892e+00
-6.520550000000000068e+00
-8.768589999999999662e+00
-8.757170000000000343e+00
6.008460000000000356e+00
6.502620000000000289e+00
7.521449999999999747e+00
7.911030000000000229e+00
7.911030000000000229e+00
7.521440000000000126e+00
6.502629999999999910e+00
6.008420000000000094e+00
1.090700000000000003e+01
1.328340000000000032e+01
1.495609999999999928e+01
1.578630000000000067e+01
1.608170000000000144e+01
1.578650000000000020e+01
1.495599999999999952e+01
1.327839999999999954e+01
1.090179999999999971e+01
1.089669999999999916e+01
1.327330000000000076e+01
1.495579999999999998e+01
1.578679999999999950e+01
1.608210000000000051e+01
1.578659999999999997e+01
1.495589999999999975e+01
1.327829999999999977e+01
1.090179999999999971e+01
-8.733879999999999200e+00
-8.762930000000000774e+00
-6.580259999999999998e+00
-3.693569999999999798e+00
-3.506219999999999892e+00
-6.520550000000000068e+00
-8.768589999999999662e+00
-8.757170000000000343e+00
2.905969999999999942e+00
5.405020000000000380e-01
2.619449999999999834e-01
2.355700000000000127e+00
5.405020000000000380e-01
2.905969999999999942e+00
2.468589999999999951e-01
3.031309999999999949e+00
1.715250000000000108e-02
2.406690000000000218e+00
2.468599999999999961e-01
3.031309999999999949e+00
</DataArray>
</PointData>
<Points>
<DataArray type="Float64" Name="Points" NumberOfComponents="3" format="ascii" RangeMin="-29.833342" RangeMax="80.147705">
19.468381 20.106106 -0.000112
29.468397 19.974377 0.000083
25.534407 25.027298 0.000009
29.534189 24.975222 0.000088
19.534197 25.105254 -0.000105
25.778785 45.029378 0.000004
19.778119 45.094448 -0.000034
29.778148 44.985873 0.000030
29.830689 49.990185 0.000000
19.830592 50.089704 0.000000
29.468342 19.973884 -9.999691
29.833054 49.990400 -9.997815
19.833102 50.090000 -10.002529
19.468376 20.106571 -10.000315
-19.468556 20.106765 -10.000189
-29.468553 19.973881 -9.999795
-29.468811 19.974626 -0.000000
-19.468862 20.106096 -0.000000
-19.833390 50.090096 -10.002513
-29.833342 49.990515 -9.997832
-29.831010 49.990317 0.000000
-19.830913 50.089792 0.000000
-19.534635 25.105308 -0.000000
-19.778462 45.094536 -0.000000
-29.534622 24.975382 -0.000000
-29.778490 44.986005 -0.000000
-25.534820 25.027419 -0.000000
-25.779127 45.029493 -0.000000
-0.000116 70.143583 0.000000
-0.000094 80.144473 0.000000
-29.833342 49.990515 9.997832
29.832990 49.990366 9.997849
-19.833390 50.090096 10.002513
19.833038 50.090016 10.002497
19.467938 20.106533 10.000082
29.467943 19.973859 9.999875
21.400645 15.080464 10.000034
27.400000 15.000000 10.000143
27.400000 15.000000 4.999953
21.400940 15.080308 4.999869
-29.468553 19.973881 9.999795
-19.468556 20.106765 10.000189
-21.401024 15.080575 4.999923
-27.400000 15.000000 4.999878
-27.400000 15.000000 10.000108
-21.400895 15.080667 10.000108
27.400000 15.000000 -4.999878
27.400000 15.000000 -10.000078
21.400781 15.080414 -4.999956
21.400726 15.080471 -10.000095
19.333420 10.107276 0.000023
29.333475 9.973053 0.000012
29.333429 9.973113 -9.999991
19.333409 10.107291 -9.999970
-21.400895 15.080667 -10.000108
-27.400000 15.000000 -10.000108
-21.401024 15.080575 -4.999923
-27.400000 15.000000 -4.999878
-19.333367 10.107561 9.999995
-19.333374 10.107545 -0.000000
-29.333384 9.972968 -0.000000
-29.333370 9.973014 10.000002
-29.198811 -0.027026 -0.000000
-29.198817 -0.027029 10.000001
-19.198809 0.107530 9.999998
-19.198811 0.107535 -0.000000
19.333443 10.107264 10.000010
29.333423 9.973094 10.000017
19.199236 0.107240 0.000020
19.199247 0.107253 10.000023
29.199259 -0.026943 10.000010
29.199224 -0.026946 0.000005
29.199219 -0.026935 -9.999997
19.199213 0.107241 -9.999973
-19.198809 0.107530 -9.999998
-19.333367 10.107561 -9.999995
-29.333370 9.973014 -10.000002
-29.198817 -0.027029 -10.000001
24.468433 20.040297 -0.000011
25.620417 31.694454 0.000008
25.702443 38.361773 0.000006
19.702017 38.432614 -0.000058
19.620115 31.769627 -0.000086
29.620046 31.644247 0.000069
29.701906 38.314450 0.000048
24.831344 50.040243 0.000000
24.468558 20.040263 -10.000001
29.769148 43.985214 -9.998132
29.699548 37.980961 -9.998462
29.625502 31.977723 -9.998846
29.548156 25.975390 -9.999274
24.833763 50.040482 -10.000012
19.548102 26.105095 -10.000799
19.625432 32.102762 -10.001247
19.699461 38.099527 -10.001697
19.769133 44.095310 -10.002160
-24.468739 20.040392 -10.000002
-24.468934 20.040382 -0.000000
-24.834055 50.040588 -10.000012
-24.831664 50.040354 0.000000
-19.702389 38.432702 -0.000000
-19.620512 31.769715 -0.000000
-19.548329 26.105227 -10.000677
-19.625682 32.102869 -10.001163
-19.699727 38.099632 -10.001639
-19.769415 44.095410 -10.002126
-29.620444 31.644379 -0.000000
-29.702278 38.314582 -0.000000
-29.769430 43.985326 -9.998161
-29.699815 37.981069 -9.998510
-29.625752 31.977830 -9.998916
-29.548385 25.975475 -9.999374
-25.702814 38.361888 -0.000000
-25.620816 31.694570 -0.000000
-18.913312 56.273099 -10.002987
-16.118888 61.863336 -10.003511
-11.725881 66.306871 -10.003918
-6.169222 69.162862 -10.004177
-0.000116 70.147510 -10.004267
6.168985 69.162834 -10.004177
11.725632 66.306817 -10.003917
16.118621 61.863262 -10.003511
18.913029 56.273009 -10.002990
18.910297 56.272098 0.000000
16.115968 61.861336 0.000000
11.723507 66.303882 0.000000
6.167800 69.159172 0.000000
-6.168037 69.159199 0.000000
-11.723756 66.303934 0.000000
-16.116237 61.861407 0.000000
-18.910590 56.272182 0.000000
28.449773 59.283235 -9.997667
24.247722 67.687809 -9.997399
17.640436 74.370401 -9.997150
9.281297 78.666435 -9.996982
-0.000094 80.147705 -9.996925
-9.281492 78.666477 -9.996982
-17.640650 74.370480 -9.997149
-24.247967 67.687916 -9.997399
-28.450048 59.283352 -9.997669
9.280316 78.663424 0.000000
17.638680 74.367995 0.000000
24.245538 67.686233 0.000000
28.447518 59.282469 0.000000
-28.447797 59.282594 0.000000
-24.245780 67.686340 0.000000
-17.638893 74.368072 0.000000
-9.280511 78.663465 0.000000
-0.000105 75.145161 0.000000
-28.450048 59.283352 9.997669
-24.247967 67.687916 9.997399
-17.640650 74.370480 9.997149
-9.281492 78.666477 9.996982
-0.000094 80.147705 9.996925
9.281297 78.666437 9.996982
17.640437 74.370404 9.997148
24.247726 67.687808 9.997398
28.449765 59.283218 9.997672
18.913009 56.273022 10.002984
16.118617 61.863268 10.003512
11.725632 66.306820 10.003918
6.168985 69.162835 10.004177
-0.000116 70.147510 10.004267
-6.169221 69.162862 10.004177
-11.725881 66.306871 10.003918
-16.118888 61.863336 10.003511
-18.913312 56.273099 10.002987
24.833705 50.040474 10.000012
-24.834055 50.040588 10.000012
19.769003 44.095334 10.002093
19.699246 38.099561 10.001580
19.625131 32.102800 10.001080
19.547688 26.105139 10.000581
24.468016 20.040296 9.999988
29.547751 25.975335 9.999448
29.625200 31.977673 9.998984
29.699334 37.980912 9.998560
29.769019 43.985173 9.998190
24.400489 15.040225 10.000120
24.400804 15.040210 4.999944
-24.468739 20.040392 10.000002
-19.548329 26.105227 10.000677
-19.625682 32.102869 10.001163
-19.699727 38.099632 10.001639
-19.769415 44.095410 10.002126
-29.769430 43.985326 9.998161
-29.699815 37.981069 9.998510
-29.625752 31.977830 9.998916
-29.548385 25.975475 9.999374
-24.400889 15.040312 4.999941
-24.400709 15.040304 10.000127
-20.434859 17.593877 10.000139
-20.010683 18.697487 3.471528
-28.434741 17.486727 9.999862
-28.889472 18.579978 3.471525
28.889106 18.579849 -3.471451
28.434591 17.486730 -9.999812
20.010311 18.697411 -3.471623
20.434696 17.593682 -10.000201
24.400545 15.040176 -10.000093
24.400657 15.040209 -4.999928
24.333423 10.040119 0.000015
24.333388 10.040126 -9.999982
-20.434859 17.593877 -10.000139
-24.400709 15.040304 -10.000127
-28.434741 17.486727 -9.999862
-20.010683 18.697487 -3.471528
-24.400889 15.040312 -4.999941
-28.889472 18.579978 -3.471525
-19.912861 11.501629 3.471531
-20.367078 12.594133 10.000007
-28.791679 11.382132 3.471538
-28.366954 12.486502 10.000010
-24.333369 10.040230 10.000006
-24.333377 10.040243 -0.000000
-24.198811 0.040258 -0.000000
-24.198814 0.040264 10.000001
24.333445 10.040148 10.000013
24.199239 0.040167 0.000015
24.199249 0.040159 10.000019
19.912869 11.501361 3.471538
20.367041 12.593869 10.000002
28.791692 11.382192 3.471554
28.366921 12.486547 10.000035
24.199231 0.040175 -9.999993
-24.198814 0.040264 -10.000001
-24.333369 10.040230 -10.000006
-20.367078 12.594133 -10.000007
-28.366954 12.486502 -10.000010
-19.912861 11.501629 -3.471531
-28.791679 11.382132 -3.471538
24.548400 26.040256 -9.999993
24.625850 32.040252 -9.999964
24.700003 38.040236 -9.999952
24.769794 44.040249 -9.999993
-24.548645 26.040359 -9.999984
-24.626100 32.040357 -9.999957
-24.700270 38.040341 -9.999947
-24.770076 44.040354 -9.999991
23.679623 57.777608 0.000000
20.181491 64.774326 0.000000
14.681622 70.336807 0.000000
7.724376 73.912360 0.000000
-7.724591 73.912394 0.000000
-14.681853 70.336871 0.000000
-20.181747 64.774415 0.000000
-23.679909 57.777713 0.000000
23.682100 57.778414 -10.000060
20.183880 64.776052 -10.000134
14.683541 70.339442 -10.000178
7.725447 73.915655 -10.000203
-0.000105 75.148696 -10.000212
-7.725663 73.915690 -10.000203
-14.683773 70.339508 -10.000178