<VTKFile type="UnstructuredGrid" version="0.1" byte_order="LittleEndian" header_type="UInt32" compressor="vtkZLibDataCompressor">
<UnstructuredGrid><Piece NumberOfPoints="5898" NumberOfCells="4320">
<PointData>
<DataArray Name="S11" type="Float64" format="ASCII">
1.392247851938009262e+00
-1.226492624729871750e+00
1.997403353452682495e-01
-1.354424729943275452e+00
1.404731243848800659e+00
-7.532783746719360352e-01
5.625401973724365234e+00
-6.094786405563354492e+00
-7.456906318664550781e+00
4.921354293823242188e+00
-4.172964841127395630e-01
-1.013368463516235352e+01
6.638413667678833008e+00
-3.279960155487060547e-02
-3.200489282608032227e-02
-4.238476902246475220e-01
-1.130584675818681717e+00
1.587887324392795563e+00
6.644443988800048828e+00
-1.014297008514404297e+01
-7.517640948295593262e+00
4.874786496162414551e+00
1.398051768541336060e+00
5.624186873435974121e+00
-1.351650238037109375e+00
-6.095345735549926758e+00
2.042493224143981934e-01
-7.531584501266479492e-01
-3.459536437988281250e+02
2.380114135742187500e+02
-1.004405021667480469e+01
-1.003502464294433594e+01
6.301216602325439453e+00
6.297028779983520508e+00
-2.514114975929260254e-01
-2.027884237468242645e-01
-2.827132344245910645e+00
-7.305362701416015625e+01
-7.708560180664062500e+01
-2.811219573020935059e+00
-3.140285015106201172e-01
-1.136017441749572754e-01
-3.053466320037841797e+00
-8.219748306274414062e+01
-8.039812469482421875e+01
-2.921652019023895264e+00
-7.466929626464843750e+01
-7.295277786254882812e+01
-3.287783861160278320e+00
-2.908364772796630859e+00
7.423037290573120117e-02
-8.336935937404632568e-02
-3.358582258224487305e-01
-2.834493592381477356e-01
-2.898434579372406006e+00
-8.000005340576171875e+01
-3.138627171516418457e+00
-8.158127593994140625e+01
-2.562567442655563354e-01
1.208138354122638702e-01
3.253233917057514191e-01
-1.670957468450069427e-01
5.033813940826803446e-04
1.923904987052083015e-03
2.634373493492603302e-03
-5.882658297196030617e-03
-2.456054091453552246e-01
-1.705916728824377060e-01
-7.802092004567384720e-03
2.450634492561221123e-03
1.885519595816731453e-03
-5.711437552236020565e-05
-2.730980049818754196e-04
1.886803191155195236e-03
2.510502235963940620e-03
-2.647652626037597656e-01
-1.804207563400268555e-01
2.344048349186778069e-03
9.527348838746547699e-01
1.357660248875617981e+00
-8.966962173581123352e-01
-7.790296636521816254e-01
-1.739343106746673584e-01
-5.032436996698379517e-01
-2.353619039058685303e-02
-2.309324890375137329e-01
3.204019367694854736e-01
6.084834430366754532e-01
2.303057834506034851e-01
8.313509821891784668e-02
3.684595227241516113e-02
1.949873566627502441e-02
1.395347714424133301e-02
2.216547727584838867e-02
4.853415489196777344e-02
8.987659215927124023e-02
9.340769052505493164e-02
-8.101958036422729492e-02
-6.580665707588195801e-01
-1.569200158119201660e-01
5.389263033866882324e+00
5.065372586250305176e+00
4.664982557296752930e+00
4.253200650215148926e+00
3.839010477066040039e+00
3.422106921672821045e+00
2.996015727519989014e+00
2.543885886669158936e+00
2.025061547756195068e+00
-1.996892690658569336e+00
-2.532810807228088379e+00
-2.990167856216430664e+00
-3.414211273193359375e+00
-3.821584701538085938e+00
-4.220325112342834473e+00
-4.619288444519042969e+00
-5.041318416595458984e+00
-5.496876835823059082e+00
-3.691760897636413574e-01
-6.704208016395568848e+00
-7.352867364883422852e+00
-4.842948257923126221e+00
-8.974343389272689819e+00
-1.031847336888313293e+01
-7.423257060348987579e+00
5.386099457740783691e+00
5.618179321289062500e+00
-9.132656594738364220e-01
3.390599936246871948e-01
6.840481981635093689e-01
9.638215675950050354e-01
-9.658509731292724609e+00
-8.650462627410888672e+00
-7.756205320358276367e+00
-7.083002328872680664e+00
-6.546291828155517578e+00
-6.064447164535522461e+00
-5.602422237396240234e+00
-5.148353338241577148e+00
-4.700815677642822266e+00
-4.264962673187255859e+00
-3.852000951766967773e+00
-3.477450132369995117e+00
-3.177567958831787109e+00
-2.971051812171936035e+00
-2.557798504829406738e+00
-7.424991875886917114e+00
-1.042892563343048096e+01
-1.115717452764511108e+01
-6.449835836887359619e+00
2.504741072654724121e+00
3.034943819046020508e+00
3.248134136199951172e+00
3.521410346031188965e+00
3.876129627227783203e+00
4.281757831573486328e+00
4.719442844390869141e+00
5.173958778381347656e+00
5.635504961013793945e+00
6.094769477844238281e+00
6.535492897033691406e+00
6.928759574890136719e+00
7.234279394149780273e+00
7.370014190673828125e+00
7.239800214767456055e+00
4.861592411994934082e+00
4.801357626914978027e+00
4.708812773227691650e+00
4.861064553260803223e+00
-8.583624698221683502e-01
-9.816865585744380951e-01
-1.723618656396865845e-01
2.448278516530990601e+00
-7.676530957221984863e+00
-7.343959212303161621e+00
-7.397761583328247070e+00
-7.450121641159057617e+00
-2.359487056732177734e+00
-4.264609664678573608e-01
5.009212121367454529e-01
4.471583142876625061e-01
9.800515323877334595e-01
7.182783931493759155e-01
3.768872544169425964e-01
-9.057496776804327965e-01
4.481596797704696655e-01
5.003267899155616760e-01
-4.041571021080017090e-01
-2.288759976625442505e+00
-7.995777241885662079e-01
-1.185075741261243820e+00
1.433901373296976089e+00
1.043514437973499298e+00
2.385566249489784241e+00
-2.136671394109725952e-01
-1.002260424196720123e+00
-8.689317665994167328e-01
-7.432177960872650146e+00
-1.044191074371337891e+01
-1.117032301425933838e+01
-6.456483274698257446e+00
-7.693888306617736816e+00
-7.373448014259338379e+00
-7.438732028007507324e+00
-7.506053924560546875e+00
-4.893784403800964355e+00
-9.001080080866813660e+00
-1.033514821529388428e+01
-7.430273264646530151e+00
4.831107139587402344e+00
4.775755643844604492e+00
4.691041886806488037e+00
4.848115801811218262e+00
5.999342799186706543e-01
2.538047768175601959e-01
5.388784646987915039e+00
5.065324783325195312e+00
4.665060877799987793e+00
4.253366470336914062e+00
3.839230120182037354e+00
3.422353088855743408e+00
2.996028959751129150e+00
2.543291330337524414e+00
2.022020459175109863e+00
5.367537379264831543e+00
5.615593433380126953e+00
2.515689134597778320e+00
3.045498132705688477e+00
3.256161689758300781e+00
3.527162432670593262e+00
3.880257606506347656e+00
4.284775733947753906e+00
4.721742391586303711e+00
5.175810098648071289e+00
5.637064456939697266e+00
6.096109628677368164e+00
6.536599159240722656e+00
6.929527282714843750e+00
7.234464406967163086e+00
7.369046688079833984e+00
7.238368511199951172e+00
-1.297100558876991272e-01
-5.277219973504543304e-01
-1.996498376131057739e+00
-2.531636357307434082e+00
-2.989816606044769287e+00
-3.413990855216979980e+00
-3.821457207202911377e+00
-4.220095276832580566e+00
-4.618876099586486816e+00
-5.040643453598022461e+00
-5.496362566947937012e+00
-6.709789633750915527e+00
-7.353637933731079102e+00
-9.657420158386230469e+00
-8.647676944732666016e+00
-7.754014968872070312e+00
-7.081117391586303711e+00
-6.544778823852539062e+00
-6.063288211822509766e+00
-5.601569652557373047e+00
-5.147824525833129883e+00
-4.700683355331420898e+00
-4.265346527099609375e+00
-3.853026032447814941e+00
-3.479195237159729004e+00
-3.180284261703491211e+00
-2.975867986679077148e+00
-2.563802599906921387e+00
-2.354888319969177246e-01
-2.783928811550140381e-02
3.250229358673095703e-01
-7.857990264892578125e-02
9.507513046264648438e-02
9.070378541946411133e-02
4.896709322929382324e-02
2.255222201347351074e-02
1.457485556602478027e-02
2.062484622001647949e-02
3.867989778518676758e-02
8.563537895679473877e-02
-1.546579599380493164e-01
-6.554945111274719238e-01
-3.693196773529052734e-01
4.243582844734191895e+00
-1.049838542938232422e+00
-9.095488548278808594e+00
-2.004897403717041016e+01
-3.400536918640136719e+01
-5.090692710876464844e+01
-7.053827476501464844e+01
-9.253949356079101562e+01
-1.164189071655273438e+02
-1.415730590820312500e+02
-1.673097076416015625e+02
-1.928767166137695312e+02
-2.174898605346679688e+02
-2.403660049438476562e+02
-2.607577590942382812e+02
-2.779821319580078125e+02
-2.914501342773437500e+02
-3.006939239501953125e+02
-3.053713531494140625e+02
-3.052904205322265625e+02
-3.005238342285156250e+02
-2.912845458984375000e+02
-2.778471374511718750e+02
-2.606567840576171875e+02
-2.402971343994140625e+02
-2.174492187500000000e+02
-1.928600692749023438e+02
-1.673129425048828125e+02
-1.415923271179199219e+02
-1.164505844116210938e+02
-9.257978057861328125e+01
-7.058352851867675781e+01
-5.095387649536132812e+01
-3.405119228363037109e+01
-2.009178876876831055e+01
-9.134524106979370117e+00
-1.084220886230468750e+00
4.217912912368774414e+00
2.729489326477050781e+00
-2.676240295171737671e+00
-1.148779451847076416e+01
-2.389611196517944336e+01
-3.999950790405273438e+01
-5.969939231872558594e+01
-8.270340347290039062e+01
-1.085386524200439453e+02
-1.365707435607910156e+02
-1.660286254882812500e+02
-1.960330772399902344e+02
-2.256347160339355469e+02
-2.538509292602539062e+02
-2.797099227905273438e+02
-3.022953720092773438e+02
-3.207859191894531250e+02
-3.344837570190429688e+02
-3.428315277099609375e+02
-3.436303863525390625e+02
-3.358879318237304688e+02
-3.234362640380859375e+02
-3.066270523071289062e+02
-2.859971313476562500e+02
-2.622168617248535156e+02
-2.360492706298828125e+02
-2.083135261535644531e+02
-1.798529472351074219e+02
-1.515003662109375000e+02
-1.240437335968017578e+02
-9.819732856750488281e+01
-7.457674121856689453e+01
-5.367692470550537109e+01
-3.585603237152099609e+01
-2.132120060920715332e+01
-1.011975753307342529e+01
-2.140250146389007568e+00
2.809688687324523926e+00
-9.809597969055175781e+00
-7.696896672248840332e+00
-2.791370153427124023e+00
5.183671236038208008e+00
1.623539793491363525e+01
3.024191331863403320e+01
4.696348571777343750e+01
6.605628776550292969e+01
8.706315803527832031e+01
1.094239463806152344e+02
1.324916648864746094e+02
1.555568695068359375e+02
1.778756332397460938e+02
1.987039871215820312e+02
2.173285446166992188e+02
2.330974578857421875e+02
2.454456634521484375e+02
2.539369049072265625e+02
2.583165359497070312e+02
2.583975219726562500e+02
2.540921096801757812e+02
2.455862731933593750e+02
2.332160644531250000e+02
2.174240722656250000e+02
1.987733154296875000e+02
1.779185791015625000e+02
1.555751800537109375e+02
1.324878578186035156e+02
1.094009552001953125e+02
8.702430343627929688e+01
6.600504493713378906e+01
4.690340232849121094e+01
3.017651081085205078e+01
1.616835969686508179e+01
5.118805646896362305e+00
-2.849032640457153320e+00
-7.743020534515380859e+00
-9.838722229003906250e+00
2.356623458862304688e+02
2.296536369323730469e+02
2.197375030517578125e+02
2.063886032104492188e+02
1.901057662963867188e+02
1.714847145080566406e+02
1.511940917968750000e+02
1.299452896118164062e+02
1.084591426849365234e+02
8.743367958068847656e+01
6.751379585266113281e+01
4.926408243179321289e+01
3.314930534362792969e+01
1.952526688575744629e+01
8.641762971878051758e+00
6.487574577331542969e-01
-4.442780584096908569e+00
-6.794050812721252441e+00
-6.956588745117187500e+00
-4.890817269682884216e+00
-3.812415599822998047e-01
6.747303605079650879e+00
1.650391535460948944e+01
2.878084015846252441e+01
4.338788938522338867e+01
6.005001449584960938e+01
7.840262126922607422e+01
9.799501991271972656e+01
1.183027553558349609e+02
1.387462081909179688e+02
1.587133216857910156e+02
1.775838241577148438e+02
1.947534866333007812e+02
2.096599044799804688e+02
2.218061752319335938e+02
2.307787933349609375e+02
2.363989601135253906e+02
1.644794635772705078e+02
5.900064182281494141e+01
-6.356799507141113281e+01
-2.096446056365966797e+02
-7.467924833297729492e+00
-7.382780551910400391e+00
-7.517426252365112305e+00
-9.763024330139160156e+00
-7.687438607215881348e+00
-2.795971155166625977e+00
5.166617631912231445e+00
1.621013247966766357e+01
3.020782279968261719e+01
4.692062473297119141e+01
6.600396537780761719e+01
8.700156211853027344e+01
1.093535614013671875e+02
1.324139518737792969e+02
1.554739303588867188e+02
1.777903442382812500e+02
1.986194610595703125e+02
2.172469863891601562e+02
2.330190277099609375e+02
2.453738250732421875e+02
2.538686752319335938e+02
2.581681442260742188e+02
2.580851287841796875e+02
2.537091445922851562e+02
2.452290344238281250e+02
2.328987274169921875e+02
2.171531677246093750e+02
1.985552825927734375e+02
1.777557907104492188e+02
1.554669189453125000e+02
1.324312438964843750e+02
1.093913955688476562e+02
8.705587577819824219e+01
6.607050132751464844e+01
4.699497222900390625e+01
3.028570890426635742e+01
1.628727751970291138e+01
5.238789081573486328e+00
-2.733948945999145508e+00
-7.639989972114562988e+00
-9.734492540359497070e+00
-7.501306295394897461e+00
-7.350984215736389160e+00
-7.425672411918640137e+00
4.709718585014343262e+00
4.817537903785705566e+00
4.866054534912109375e+00
3.813581347465515137e+00
-1.543306350708007812e+00
-9.641367912292480469e+00
-2.064869928359985352e+01
-3.466213035583496094e+01
-5.162563323974609375e+01
-7.132447814941406250e+01
-9.339840316772460938e+01
-1.173543739318847656e+02
-1.425870285034179688e+02
-1.684014739990234375e+02
-1.940424804687500000e+02
-2.187225112915039062e+02
-2.416547698974609375e+02
-2.620888595581054688e+02
-2.793405151367187500e+02
-2.928242492675781250e+02
-3.020948028564453125e+02
-3.068779144287109375e+02
-3.069569702148437500e+02
-3.022576599121093750e+02
-2.929720306396484375e+02
-2.794465789794921875e+02
-2.621520233154296875e+02
-2.416798324584960938e+02
-2.187153854370117188e+02
-1.940091323852539062e+02
-1.683477172851562500e+02
-1.425180892944335938e+02
-1.172751350402832031e+02
-9.331346511840820312e+01
-7.123825073242187500e+01
-5.154214859008789062e+01
-3.458481979370117188e+01
-2.058006000518798828e+01
-9.582671165466308594e+00
-1.495928704738616943e+00
3.844644069671630859e+00
4.903735756874084473e+00
4.840446889400482178e+00
4.726873695850372314e+00
-7.541421860456466675e+00
-1.065150284767150879e+01
-1.110640096664428711e+01
-6.506238371133804321e+00
-6.514572829008102417e+00
-1.111852759122848511e+01
-1.066219067573547363e+01
-7.545847803354263306e+00
6.967503547668457031e+00
7.150197267532348633e+00
7.040770769119262695e+00
6.758168220520019531e+00
6.383329868316650391e+00
5.958979129791259766e+00
5.515376091003417969e+00
5.069686174392700195e+00
4.632496833801269531e+00
4.215790748596191406e+00
3.835718154907226562e+00
3.514393925666809082e+00
3.259623527526855469e+00
3.051643967628479004e+00
2.498733282089233398e+00
6.249193251132965088e-01
5.804464668035507202e-01
8.371176868677139282e-01
-3.760066479444503784e-01
-2.538349509239196777e+00
-2.921871900558471680e+00
-3.170512318611145020e+00
-3.454554915428161621e+00
-3.803075790405273438e+00
-4.190786361694335938e+00
-4.605575084686279297e+00
-5.034755468368530273e+00
-5.472345113754272461e+00
-5.919035434722900391e+00
-6.387404203414916992e+00
-6.913502216339111328e+00
-7.584005594253540039e+00
-8.488398551940917969e+00
-9.526384353637695312e+00
4.086318211629986763e-01
6.275683641433715820e-02
-2.994582176208496094e+00
1.135356128215789795e+00
-9.076727181673049927e-01
-1.065633654594421387e+00
-7.118397235870361328e+00
-1.520228815078735352e+01
-2.758632230758666992e+01
-5.995977973937988281e+01
-7.177001953125000000e+01
-7.176025009155273438e+01
-7.059707450866699219e+01
-5.849757289886474609e+01
-2.696234750747680664e+01
-1.547772812843322754e+01
-7.765757858753204346e+00
-3.068274676799774170e+00
-2.923180639743804932e+00
-2.896141648292541504e+00
-3.182795643806457520e+00
-4.421805143356323242e+00
-4.860562086105346680e+00
-3.496060371398925781e+00
8.510976433753967285e+00
5.360773205757141113e+00
2.827104389667510986e+00
3.793322563171386719e+00
-8.460835330188274384e-01
3.781589940190315247e-01
7.137436494231224060e-01
9.595679640769958496e-01
2.533482789993286133e+00
3.064903497695922852e+00
3.265272259712219238e+00
3.513381123542785645e+00
3.834253907203674316e+00
4.213779449462890625e+00
4.630627393722534180e+00
5.067828416824340820e+00
5.513529062271118164e+00
5.957029342651367188e+00
6.381142616271972656e+00
6.755534172058105469e+00
7.037307977676391602e+00
7.145378828048706055e+00
6.962205648422241211e+00
-9.526047229766845703e+00
-8.486379146575927734e+00
-7.583056926727294922e+00
-6.913160085678100586e+00
-6.387471437454223633e+00
-5.919360637664794922e+00
-5.472738504409790039e+00
-5.035138368606567383e+00
-4.605902671813964844e+00
-4.191835880279541016e+00
-3.805413722991943359e+00
-3.464612007141113281e+00
-3.188210964202880859e+00
-3.000589370727539062e+00
-2.582408785820007324e+00
-1.826242744922637939e+00
-1.433085091412067413e-01
5.548845529556274414e-01
-1.026669688522815704e+00
-5.503986328840255737e-01
1.801199436187744141e+00
-7.864642679691314697e+00
-1.585890173912048340e+01
-2.797086668014526367e+01
-6.276743507385253906e+01
-7.711743545532226562e+01
-7.878228378295898438e+01
-7.884924125671386719e+01
-6.563432216644287109e+01
-2.816953134536743164e+01
-1.551951956748962402e+01
-7.086668431758880615e+00
-3.000867009162902832e+00
-3.046892791986465454e+00
-3.241270035505294800e+00
-2.829920768737792969e+00
-4.236830234527587891e+00
-5.189908742904663086e+00
-5.053678512573242188e+00
-3.871073722839355469e+00
-3.465132236480712891e+00
-1.829504966735839844e-01
3.048316359519958496e+00
1.435201704502105713e+00
3.546895757317543030e+00
3.878542661666870117e+00
6.120945453643798828e+00
3.986655950546264648e+00
4.319040417671203613e+00
5.794729232788085938e+00
-6.987110137939453125e+01
-7.086969947814941406e+01
-7.192066764831542969e+01
-7.184696960449218750e+01
-5.464262962341308594e-01
3.100207388401031494e+00
1.222115099430084229e+00
-5.223490953445434570e+00
-4.099209070205688477e+00
-4.115148246288299561e+00
-3.005534768104553223e+00
-3.058127760887145996e+00
-3.061999529600143433e+00
-3.354133874177932739e+00
-2.759393692016601562e+00
-4.110639333724975586e+00
-5.092896699905395508e+00
-6.034155750274658203e+01
-2.766465759277343750e+01
-1.503381037712097168e+01
-6.744164109230041504e+00
-7.741321563720703125e+00
-1.519408845901489258e+01
-2.625714635848999023e+01
-5.693958282470703125e+01
1.761832628399133682e-01
1.955960430204868317e-01
2.720380499958992004e-01
-2.136953175067901611e-03
2.275537490844726562e+00
4.578844547271728516e+00
-1.006918400526046753e+00
3.455780968070030212e-01
2.395534329116344452e-01
1.067330304533243179e+00
3.682349848095327616e-01
-7.520093955099582672e-02
-3.391246795654296875e-01
1.153039932250976562e-01
-6.227155625820159912e-01
-7.606420218944549561e-01
-2.562781162559986115e-01
-2.976453490555286407e-01
-3.180061802268028259e-01
-3.081526169553399086e-01
-1.721514172852039337e+00
-7.003258634358644485e-01
-3.239604644477367401e-01
-3.843427821993827820e-01
-2.769057393074035645e+00
-4.124816298484802246e+00
-5.089573383331298828e+00
-7.033109009265899658e+00
-1.554005694389343262e+01
-2.794210958480834961e+01
-6.552816104888916016e+01
-5.412683486938476562e-01
3.143940687179565430e+00
1.196658313274383545e+00
-5.264630317687988281e+00
-4.111983060836791992e+00
-3.970170319080352783e+00
-6.220667934417724609e+01
-2.753633069992065430e+01
-1.583757281303405762e+01
-7.945832848548889160e+00
3.643369436264038086e+00
4.349242329597473145e+00
6.100332736968994141e+00
-7.903850936889648438e+01
-7.920504760742187500e+01
-7.823398971557617188e+01
-7.710462951660156250e+01
-3.280413657426834106e+00
-3.019201397895812988e+00
-3.015586346387863159e+00
-2.977387905120849609e+00
-2.752472255378961563e-01
-3.301259241998195648e-01
-1.716815270483493805e-01
3.279069326817989349e-01
-2.717387378215789795e-01
-1.270706415176391602e+00
-8.522231876850128174e-01
-8.112827688455581665e-01
-5.722436010837554932e-01
1.444636515807360411e-01
-3.584631276316940784e-01
-1.766667813062667847e-01
2.361184597015380859e+00
2.267628908157348633e-01
-2.427595257759094238e-01
-8.314991593360900879e-01
-3.766645193099975586e-01
-4.194859266281127930e+00
2.225352656096220016e-01
6.970051229000091553e-01
4.040554165840148926e-01
-1.156649384647607803e-01
8.886827714741230011e-02
2.143105124123394489e-01
5.206579808145761490e-02
1.469820365309715271e-01
-4.809851030586287379e-03
-1.944874122273176908e-03
-3.576981893274933100e-03
-5.201592692174017429e-03
-1.880962387076579034e-03
-1.728971314150840044e-03
-3.859060379909351468e-04
6.368214031681418419e-03
2.091401349753141403e-02
2.014245465397834778e-02
4.877948842477053404e-03
-5.370097234845161438e-03
-3.057935042306780815e-03
1.559184689540416002e-03
-2.424400765448808670e-02
4.015756957232952118e-02
3.552275151014328003e-02
1.547003956511616707e-02
6.030691554769873619e-03
1.553893764503300190e-02
2.811139781260862947e-02
5.305158998817205429e-02
1.701451325789093971e-02
3.050488606095314026e-02
2.241941355168819427e-02
-1.552377594634890556e-02
5.442132405005395412e-02
3.512847423553466797e-02
2.173356013372540474e-02
1.164392125792801380e-02
-1.562305162660777569e-01
-3.098986446857452393e-01
-2.655222769826650620e-01
-1.026879018172621727e-01
3.939718157052993774e-01
6.621793657541275024e-01
1.998611316084861755e-01
-1.761711016297340393e-01
-3.518104205140843987e-01
7.467021467164158821e-02
-7.343547418713569641e-03
-7.226723013445734978e-03
-5.293622496537864208e-03
-6.311314587946981192e-03
1.629139180295169353e-03
-3.375120810233056545e-03
-6.440271856263279915e-03
4.776044923346489668e-03
1.946738734841346741e-02
2.013940084725618362e-02
5.985587951727211475e-03
-6.850661593489348888e-04
-2.068597590550780296e-03
-2.455440582707524300e-03
-1.697426242753863335e-02
2.100867452099919319e-02
3.010323271155357361e-02
1.695559127256274223e-02
1.396041511907242239e-02
1.949663832783699036e-02
6.193377543240785599e-02
-4.718554392457008362e-02
1.474757678806781769e-02
3.444802388548851013e-02
3.999099694192409515e-02
-2.071025734767317772e-02
5.537054163869470358e-02
3.801933419890701771e-02
1.429803634528070688e-02
5.795132135972380638e-03
-1.207740068435668945e+00
-2.892982698976993561e-01
3.300473317503929138e-01
-5.602640509605407715e-01
-7.993151396512985229e-01
-8.532786965370178223e-01
-5.543661117553710938e-02
2.238508462905883789e-01
2.075408458709716797e+00
-4.204311847686767578e+00
-4.184935092926025391e-01
-8.194459825754165649e-01
-2.178169041872024536e-02
5.652172397822141647e-02
3.431998286396265030e-02
2.004474354907870293e-02
3.444746136665344238e-03
1.788807846605777740e-02
1.938053872436285019e-02
4.242978204274550080e-03
1.680470583960413933e-02
3.971503674983978271e-02
5.573805607855319977e-02
-1.462293975055217743e-02
1.723611261695623398e-03
-3.689775010570883751e-03
-6.861489731818437576e-03
-8.153808303177356720e-03
-1.375499414280056953e-05
-1.828261418268084526e-03
-4.870828008279204369e-03
-3.432421362958848476e-03
6.150722736492753029e-03
2.101194765418767929e-02
2.076421491801738739e-02
5.326651036739349365e-03
-2.318226080387830734e-02
4.014909267425537109e-02
3.494550473988056183e-02
1.514158211648464203e-02
1.942238751798868179e-01
6.950772702693939209e-01
4.133566245436668396e-01
-1.194451414048671722e-01
1.753566646948456764e-02
3.103018086403608322e-02
2.824124880135059357e-02
-1.321125496178865433e-02
2.249872554093599319e-01
-3.298841156065464020e-01
-1.924772420898079872e-01
-1.469276007264852524e-01
-2.043345186393707991e-03
-2.157884184271097183e-03
-1.215282129123806953e-03
-2.583562600193545222e-04
-2.600321155041456223e-01
-2.933162562549114227e-01
-2.912535406649112701e-01
-1.322085438296198845e-01
-5.715250503271818161e-03
-4.353692056611180305e-03
-1.463323133066296577e-03
2.402076032012701035e-03
-8.385943472385406494e-01
-8.265381157398223877e-01
-6.079710721969604492e-01
-9.705738723278045654e-01
-1.658253669738769531e-01
-4.448360204696655273e+00
2.952473014593124390e-01
-2.595211677253246307e-01
-1.293581426143646240e+00
2.094078063964843750e+00
4.610701799392700195e-01
-6.266232132911682129e-01
-6.320152375847101212e-01
6.228051334619522095e-02
1.343926712870597839e-01
8.578501548618078232e-01
-4.958528652787208557e-01
-1.990335881710052490e-01
4.386169761419296265e-01
6.326923854649066925e-01
-2.253696322441101074e-03
-1.286640763282775879e-02
-1.607513427734375000e-02
-4.738688468933105469e-03
1.821568608283996582e-02
5.720138549804687500e-02
1.129449605941772461e-01
1.600527763366699219e-01
3.245067596435546875e-02
-1.018627732992172241e-01
-7.539057731628417969e-02
-5.008134245872497559e-02
-2.265360951423645020e-02
6.563097238540649414e-03
4.166999459266662598e-02
8.673080801963806152e-02
1.403841376304626465e-01
1.756017208099365234e-01
-1.267322301864624023e-01
1.621139049530029297e-02
2.640804648399353027e-02
1.590499281883239746e-02
1.567631959915161133e-02
2.798381447792053223e-02
5.162516236305236816e-02
8.628457784652709961e-02
1.422529071569442749e-01
-1.046799421310424805e+00
-2.333165019750595093e+00
-2.227529406547546387e+00
-9.233704209327697754e-01
-3.145380213856697083e+00
-5.493098385632038116e+00
-4.967990219593048096e+00
-2.333560168743133545e+00
1.950582042336463928e+00
1.475392028689384460e+00
-2.265018075704574585e-01
-1.522709488868713379e+00
9.354915320873260498e-01
1.075686297379434109e+00
-2.115233987569808960e-01
-5.149963498115539551e-01
5.162094533443450928e-01
6.412430703639984131e-01
-1.799737811088562012e-01
-3.003460168838500977e-01
3.853038251399993896e-01
4.898723363876342773e-01
-2.908223867416381836e-01
-2.989037334918975830e-01
3.524336814880371094e-01
4.599163830280303955e-01
-3.883749544620513916e-01
-3.214315176010131836e-01
3.568148016929626465e-01
4.787259995937347412e-01
-4.501557648181915283e-01
-3.407012820243835449e-01
3.819670677185058594e-01
5.242056846618652344e-01
-4.935079813003540039e-01
-3.597941398620605469e-01
4.174695611000061035e-01
5.856634378433227539e-01
-5.238985419273376465e-01
-3.755928277969360352e-01
4.609197974205017090e-01
6.616416573524475098e-01
-5.410355329513549805e-01
-3.853745460510253906e-01
5.103186368942260742e-01
7.481885552406311035e-01
-5.490084886550903320e-01
-3.888838887214660645e-01
5.557678937911987305e-01
8.141793608665466309e-01
-5.815061926841735840e-01
-4.032236337661743164e-01
5.457288026809692383e-01
7.417311668395996094e-01
-7.522161602973937988e-01
-4.815487861633300781e-01
3.417257070541381836e-01
2.425922155380249023e-01
-1.368497729301452637e+00
-7.525197267532348633e-01
-3.523669242858886719e-01
-1.314159750938415527e+00
-3.007444858551025391e+00
-1.525547027587890625e+00
-2.546318590641021729e+00
-4.768923550844192505e+00
-6.253050420433282852e+00
-3.282897591590881348e+00
1.761534690856933594e+00
1.503994718194007874e+00
1.808716595172882080e+00
2.239811837673187256e+00
2.662258923053741455e+00
3.057987272739410400e+00
3.444949567317962646e+00
3.828690648078918457e+00
4.212159156799316406e+00
4.593575239181518555e+00
4.962552666664123535e+00
5.258957982063293457e+00
5.464444637298583984e+00
5.481881976127624512e+00
5.289382696151733398e+00
1.478487160056829453e+00
1.990820378065109253e+00
2.122584074735641479e+00
2.380887657403945923e+00
2.724240422248840332e+00
3.081580340862274170e+00
3.447183251380920410e+00
3.816477417945861816e+00
4.188389539718627930e+00
4.559151887893676758e+00
4.917938351631164551e+00
5.216502308845520020e+00
5.425689935684204102e+00
5.446243882179260254e+00
5.249404191970825195e+00
1.527685627341270447e+00
2.044668227434158325e+00
2.242469012737274170e+00
2.477746337652206421e+00
2.775289237499237061e+00
3.100177347660064697e+00
3.443124532699584961e+00
3.796003580093383789e+00
4.154189944267272949e+00
4.511968493461608887e+00
4.857609510421752930e+00
5.149666666984558105e+00
5.354283332824707031e+00
5.377689599990844727e+00
5.181912899017333984e+00
1.543094724416732788e+00
2.113979279994964600e+00
2.381112277507781982e+00
2.651658654212951660e+00
2.946943461894989014e+00
3.266239225864410400e+00
3.606577754020690918e+00
3.960189640522003174e+00
4.320903003215789795e+00
4.681103825569152832e+00
5.027469635009765625e+00
5.324504017829895020e+00
5.520962476730346680e+00
5.541885018348693848e+00
5.354694783687591553e+00
-1.768031492829322815e+00
-1.452120028436183929e+00
-1.768704101443290710e+00
-2.214884787797927856e+00
-2.651410520076751709e+00
-3.051928758621215820e+00
-3.437240302562713623e+00
-3.812949597835540771e+00
-4.184046387672424316e+00
-4.557582139968872070e+00
-4.954157590866088867e+00
-5.387098073959350586e+00
-5.959488272666931152e+00
-6.603656411170959473e+00
-7.307247400283813477e+00
-1.551712006330490112e+00
-1.970268890261650085e+00
-2.089139729738235474e+00
-2.357637792825698853e+00
-2.713058710098266602e+00
-3.076263725757598877e+00
-3.441761076450347900e+00
-3.805765151977539062e+00
-4.169372677803039551e+00
-4.537272334098815918e+00
-4.926385521888732910e+00
-5.352859377861022949e+00
-5.902279257774353027e+00
-6.534400939941406250e+00
-7.247334599494934082e+00
-1.715192899107933044e+00
-2.047035902738571167e+00
-2.203953236341476440e+00
-2.450319916009902954e+00
-2.761629045009613037e+00
-3.095102310180664062e+00
-3.440874636173248291e+00
-3.792655467987060547e+00
-4.148772835731506348e+00
-4.512302637100219727e+00
-4.897597432136535645e+00
-5.320313930511474609e+00
-5.850397348403930664e+00
-6.466666221618652344e+00
-7.180568575859069824e+00
-1.684691756963729858e+00
-2.086347252130508423e+00
-2.321853518486022949e+00
-2.612474858760833740e+00
-2.928103804588317871e+00
-3.260173380374908447e+00
-3.607064366340637207e+00
-3.964242458343505859e+00
-4.329908907413482666e+00
-4.706382036209106445e+00
-5.106598019599914551e+00
-5.552865862846374512e+00
-6.091467738151550293e+00
-6.740190625190734863e+00
-7.473609805107116699e+00
1.637810062617063522e+00
1.342576593160629272e+00
-7.823890671133995056e-01
-1.789594493806362152e+00
3.330135215073823929e-01
1.032138168811798096e-01
3.716631531715393066e-01
-8.305163681507110596e-01
1.661350950598716736e-01
-1.768685877323150635e-03
3.527079895138740540e-01
-6.433460749685764313e-01
1.751917237415909767e-01
2.124188840389251709e-02
2.422746270895004272e-01
-5.168818850070238113e-01
-7.408995047211647034e+00
-1.029720667004585266e+01
-8.974296838045120239e+00
-4.858326166868209839e+00
-7.383253157138824463e+00
-1.026694852113723755e+01
-8.879006050527095795e+00
-4.798460453748703003e+00
-7.641857802867889404e+00
-1.044668859243392944e+01