<VTKFile type="UnstructuredGrid" version="0.1" byte_order="LittleEndian" header_type="UInt32" compressor="vtkZLibDataCompressor">
<UnstructuredGrid><Piece NumberOfPoints="5898" NumberOfCells="4320">
<PointData>
<DataArray Name="S11" type="Float64" format="ASCII">
7.005670000000000508e-01
2.158150000000000068e-01
-5.944139999999999840e-02
3.281000000000000139e+00
-3.235310000000000130e+00
-8.061129999999999685e-01
-1.272749999999999915e+01
1.247749999999999915e+01
9.276099999999999568e+00
-2.427390000000000114e+01
1.486969999999999903e+00
8.885210000000000719e+00
-2.302149999999999963e+01
-9.654030000000000111e-01
-9.525460000000000038e-01
1.521060000000000079e+00
-2.059590000000000032e-01
8.202409999999999979e-01
-2.304110000000000014e+01
8.897470000000000212e+00
9.195080000000000808e+00
-2.424950000000000117e+01
-3.228239999999999998e+00
-1.271870000000000012e+01
3.276240000000000041e+00
1.247540000000000049e+01
-6.551990000000000591e-02
-8.060990000000000100e-01
-4.073539999999999850e+02
2.584920000000000186e+02
8.981780000000000541e+00
8.972350000000000492e+00
-2.311149999999999949e+01
-2.310460000000000136e+01
-9.546599999999999531e-01
1.745740000000000069e+00
-7.247569999999999624e+00
-9.988049999999999784e+01
-9.890290000000000248e+01
-1.046870000000000012e+01
1.260899999999999910e+00
-7.134120000000000461e-01
-1.089150000000000063e+01
-1.061479999999999961e+02
-1.123970000000000056e+02
-6.722480000000000011e+00
-9.341649999999999920e+01
-9.873229999999999507e+01
-1.137100000000000044e+01
-6.593350000000000044e+00
4.146380000000000066e-01
5.777219999999999578e-01
6.047249999999999570e-01
2.039559999999999984e-01
-6.743909999999999627e+00
-1.103730000000000047e+02
-1.093229999999999968e+01
-1.045660000000000025e+02
1.707309999999999939e-01
3.237479999999999802e-01
3.003000000000000114e-01
3.926640000000000130e-01
-3.768319999999999916e-03
1.088659999999999975e-02
1.184669999999999994e-02
4.204420000000000379e-03
1.607490000000000030e-01
3.692880000000000051e-01
3.856699999999999798e-03
1.144079999999999923e-02
1.142199999999999986e-02
-4.533579999999999728e-03
1.208550000000000076e-02
9.621060000000000723e-03
1.021709999999999979e-02
1.750029999999999919e-01
4.057689999999999908e-01
1.268810000000000077e-02
3.695380000000000109e+00
2.110459999999999781e+00
-1.974539999999999962e+00
-3.286309999999999842e+00
6.054230000000000445e-01
1.603269999999999973e+00
2.211539999999999895e-01
4.412079999999999891e-01
-3.390079999999999760e-01
-1.575169999999999959e+00
-7.050929999999999698e-01
-7.565679999999999628e-02
-3.914179999999999743e-02
-2.946990000000000026e-02
-1.648370000000000044e-02
-2.371719999999999905e-03
1.443140000000000048e-02
2.788260000000000044e-02
2.668910000000000032e-03
-1.964990000000000070e-01
-7.799310000000000409e-01
-6.752550000000000496e-01
-1.159529999999999994e+01
-1.084130000000000038e+01
-1.004749999999999943e+01
-9.218899999999999650e+00
-8.366540000000000532e+00
-7.492280000000000051e+00
-6.584760000000000169e+00
-5.596770000000000245e+00
-4.480059999999999931e+00
4.499130000000000074e+00
5.595290000000000319e+00
6.574160000000000004e+00
7.479239999999999888e+00
8.358090000000000686e+00
9.230349999999999611e+00
1.010720000000000063e+01
1.097170000000000023e+01
1.173070000000000057e+01
-6.750260000000000149e-01
1.276890000000000036e+01
1.167960000000000065e+01
-4.249559999999999782e+00
-7.820229999999999571e+00
-8.710589999999999833e+00
-5.633530000000000371e+00
-1.769689999999999941e+01
-1.442520000000000024e+01
2.498569999999999958e-01
-5.902539999999999454e-01
4.606669999999999932e-01
-5.502569999999999961e-01
1.138550000000000040e+01
1.249329999999999963e+01
1.224319999999999986e+01
1.156080000000000041e+01
1.075189999999999912e+01
9.938390000000000057e+00
9.145020000000000593e+00
8.378370000000000317e+00
7.641860000000000319e+00
6.943959999999999688e+00
6.298540000000000028e+00
5.710829999999999629e+00
5.128020000000000245e+00
4.158970000000000056e+00
2.090300000000000047e+00
-6.908719999999999750e+00
-1.007000000000000028e+01
-9.143420000000000769e+00
-5.064580000000000304e+00
-1.385420000000000096e+00
-3.652629999999999821e+00
-4.889240000000000030e+00
-5.625680000000000014e+00
-6.279659999999999798e+00
-6.946889999999999787e+00
-7.644479999999999720e+00
-8.363289999999999225e+00
-9.087339999999999307e+00
-9.800760000000000360e+00
-1.049760000000000026e+01
-1.121640000000000015e+01
-1.207859999999999978e+01
-1.352699999999999925e+01
-1.658599999999999852e+01
-2.414209999999999923e+01
-2.385569999999999879e+01
-2.340259999999999962e+01
-2.280750000000000099e+01
-8.817730000000000290e-01
-5.714360000000000550e-01
-1.391210000000000058e+00
-3.377400000000000180e+00
9.177400000000000446e+00
9.216850000000000875e+00
9.231159999999999144e+00
9.258520000000000749e+00
4.075700000000000323e+00
1.975959999999999939e+00
9.884119999999999573e-01
1.205549999999999899e+00
-5.405640000000000445e-01
5.010609999999999786e-01
-5.621960000000000290e-01
2.695239999999999858e-01
1.226439999999999975e+00
1.004839999999999955e+00
1.957019999999999982e+00
3.994829999999999881e+00
-3.354750000000000121e+00
-1.952099999999999946e+00
2.010720000000000063e+00
3.722469999999999946e+00
-3.247290000000000010e+00
-1.340940000000000021e+00
-5.567699999999999871e-01
-8.735399999999999832e-01
-6.922920000000000407e+00
-1.008210000000000051e+01
-9.145110000000000738e+00
-5.059779999999999944e+00
9.168820000000000192e+00
9.192270000000000607e+00
9.192470000000000141e+00
9.200039999999999552e+00
-4.318050000000000388e+00
-7.881439999999999557e+00
-8.759959999999999525e+00
-5.680550000000000210e+00
-2.412950000000000017e+01
-2.385020000000000095e+01
-2.340249999999999986e+01
-2.281180000000000163e+01
-1.575539999999999941e+00
-7.063279999999999559e-01
-1.159220000000000006e+01
-1.083999999999999986e+01
-1.004690000000000083e+01
-9.218579999999999330e+00
-8.366160000000000707e+00
-7.491469999999999629e+00
-6.582889999999999908e+00
-5.592850000000000321e+00
-4.473589999999999733e+00
-1.762669999999999959e+01
-1.440179999999999971e+01
-1.367199999999999971e+00
-3.647559999999999913e+00
-4.892000000000000348e+00
-5.630799999999999805e+00
-6.284629999999999939e+00
-6.950870000000000104e+00
-7.647490000000000343e+00
-8.365579999999999572e+00
-9.089140000000000441e+00
-9.802179999999999893e+00
-1.049859999999999971e+01
-1.121700000000000053e+01
-1.207840000000000025e+01
-1.352630000000000088e+01
-1.659260000000000090e+01
6.746140000000000470e-01
1.601599999999999913e+00
4.493759999999999977e+00
5.592450000000000365e+00
6.572899999999999743e+00
7.478720000000000034e+00
8.357820000000000249e+00
9.230109999999999815e+00
1.010699999999999932e+01
1.097170000000000023e+01
1.173060000000000080e+01
1.275339999999999918e+01
1.163349999999999973e+01
1.138659999999999961e+01
1.249230000000000018e+01
1.224300000000000033e+01
1.156060000000000088e+01
1.075159999999999982e+01
9.938010000000000232e+00
9.144759999999999778e+00
8.378429999999999822e+00
7.642509999999999692e+00
6.945619999999999905e+00
6.301940000000000097e+00
5.717130000000000045e+00
5.139219999999999899e+00
4.177509999999999835e+00
2.115330000000000155e+00
4.435169999999999946e-01
2.193039999999999989e-01
-3.474679999999999991e-01
-1.954950000000000021e-01
3.308070000000000194e-03
2.815530000000000116e-02
1.448939999999999950e-02
-2.427019999999999785e-03
-1.662980000000000014e-02
-2.980259999999999854e-02
-3.999520000000000158e-02
-7.801890000000000214e-02
-6.754099999999999548e-01
-7.802120000000000166e-01
-6.761449999999999960e-01
-3.188909999999999911e+01
-4.067439999999999856e+01
-5.076930000000000121e+01
-6.322749999999999915e+01
-7.844039999999999679e+01
-9.641370000000000573e+01
-1.169270000000000067e+02
-1.396059999999999945e+02
-1.639550000000000125e+02
-1.893830000000000098e+02
-2.152199999999999989e+02
-2.407439999999999998e+02
-2.652060000000000173e+02
-2.878570000000000277e+02
-3.079870000000000232e+02
-3.249479999999999791e+02
-3.381770000000000209e+02
-3.472320000000000277e+02
-3.517799999999999727e+02
-3.516730000000000018e+02
-3.469669999999999845e+02
-3.378419999999999845e+02
-3.245950000000000273e+02
-3.076309999999999718e+02
-2.875049999999999955e+02
-2.648629999999999995e+02
-2.404149999999999920e+02
-2.149079999999999870e+02
-1.890910000000000082e+02
-1.636860000000000070e+02
-1.393619999999999948e+02
-1.167099999999999937e+02
-9.622379999999999711e+01
-7.827740000000000009e+01
-6.309049999999999869e+01
-5.065630000000000166e+01
-4.058420000000000272e+01
-3.182760000000000034e+01
-3.365330000000000155e+01
-4.331049999999999756e+01
-5.483970000000000056e+01
-6.944079999999999586e+01
-8.755800000000000693e+01
-1.091640000000000015e+02
-1.339629999999999939e+02
-1.614639999999999986e+02
-1.910200000000000102e+02
-2.218530000000000086e+02
-2.530800000000000125e+02
-2.837509999999999764e+02
-3.128820000000000050e+02
-3.395009999999999764e+02
-3.626920000000000073e+02
-3.816320000000000050e+02
-3.956179999999999950e+02
-4.040950000000000273e+02
-4.050409999999999968e+02
-3.970299999999999727e+02
-3.842080000000000268e+02
-3.669250000000000114e+02
-3.457049999999999841e+02
-3.212119999999999891e+02
-2.942069999999999936e+02
-2.655059999999999718e+02
-2.359490000000000123e+02
-2.063700000000000045e+02
-1.775550000000000068e+02
-1.502249999999999943e+02
-1.249989999999999952e+02
-1.023870000000000005e+02
-8.275889999999999702e+01
-6.631780000000000541e+01
-5.302499999999999858e+01
-4.242139999999999844e+01
-3.335810000000000031e+01
7.199819999999999887e+00
8.968360000000000554e+00
1.450760000000000005e+01
2.327870000000000061e+01
3.513759999999999906e+01
4.991539999999999822e+01
6.736740000000000350e+01
8.714679999999999893e+01
1.087960000000000065e+02
1.317549999999999955e+02
1.553720000000000141e+02
1.789379999999999882e+02
2.017050000000000125e+02
2.229279999999999973e+02
2.418899999999999864e+02
2.579370000000000118e+02
2.705009999999999764e+02
2.791499999999999773e+02
2.836410000000000196e+02
2.837620000000000005e+02
2.794259999999999877e+02
2.708070000000000164e+02
2.582529999999999859e+02
2.422100000000000080e+02
2.232419999999999902e+02
2.020049999999999955e+02
1.792179999999999893e+02
1.556289999999999907e+02
1.319850000000000136e+02
1.089980000000000047e+02
8.732040000000000646e+01
6.751349999999999341e+01
5.003520000000000323e+01
3.523290000000000077e+01
2.335129999999999839e+01
1.455969999999999942e+01
9.003930000000000433e+00
7.221870000000000012e+00
2.561449999999999818e+02
2.501090000000000089e+02
2.401349999999999909e+02
2.266709999999999923e+02
2.102299999999999898e+02
1.914050000000000011e+02
1.708629999999999995e+02
1.493129999999999882e+02
1.274719999999999942e+02
1.060379999999999967e+02
8.565269999999999584e+01
6.687919999999999732e+01
5.017819999999999681e+01
3.589970000000000283e+01
2.428910000000000124e+01
1.551779999999999937e+01
9.744300000000000850e+00
7.546509999999999607e+00
7.401139999999999830e+00
9.201990000000000336e+00
1.430850000000000044e+01
2.215680000000000049e+01
3.259599999999999653e+01
4.549069999999999681e+01
6.065390000000000015e+01
7.781650000000000489e+01
9.661889999999999645e+01
1.166129999999999995e+02
1.372769999999999868e+02
1.580339999999999918e+02
1.782729999999999961e+02
1.973770000000000095e+02
2.147439999999999998e+02
2.298120000000000118e+02
2.420850000000000080e+02
2.511680000000000064e+02
2.568820000000000050e+02
1.646179999999999950e+02
6.081040000000000134e+01
-5.955120000000000147e+01
-2.023389999999999986e+02
9.208000000000000185e+00
9.260410000000000252e+00
9.424220000000000041e+00
7.248960000000000292e+00
9.048949999999999605e+00
1.464370000000000083e+01
2.347210000000000107e+01
3.538380000000000081e+01
5.021110000000000184e+01
6.771059999999999945e+01
8.753589999999999804e+01
1.092300000000000040e+02
1.322290000000000134e+02
1.558849999999999909e+02
1.794830000000000041e+02
2.022779999999999916e+02
2.235190000000000055e+02
2.424910000000000139e+02
2.585350000000000250e+02
2.710880000000000223e+02
2.797040000000000077e+02
2.840330000000000155e+02
2.839049999999999727e+02
2.794049999999999727e+02
2.707490000000000236e+02
2.581820000000000164e+02
2.421320000000000050e+02
2.231659999999999968e+02
2.019399999999999977e+02
1.791680000000000064e+02
1.555960000000000036e+02
1.319710000000000036e+02
1.090040000000000049e+02
8.734279999999999688e+01
6.754900000000000659e+01
5.007909999999999684e+01
3.527929999999999922e+01
2.339270000000000138e+01
1.458709999999999951e+01
9.011710000000000775e+00
7.227750000000000341e+00
9.443530000000000868e+00
9.303570000000000562e+00
9.273039999999999949e+00
-2.318730000000000047e+01
-2.373799999999999955e+01
-2.411469999999999914e+01
-3.200310000000000343e+01
-4.078759999999999764e+01
-5.087380000000000280e+01
-6.332159999999999656e+01
-7.853390000000000271e+01
-9.652230000000000132e+01
-1.170679999999999978e+02
-1.397949999999999875e+02
-1.642069999999999936e+02
-1.897110000000000127e+02
-2.156330000000000098e+02
-2.412489999999999952e+02
-2.658029999999999973e+02
-2.885459999999999923e+02
-3.087629999999999768e+02
-3.258039999999999736e+02
-3.391120000000000232e+02
-3.482810000000000059e+02
-3.530160000000000196e+02
-3.531340000000000146e+02
-3.485679999999999836e+02
-3.394710000000000036e+02
-3.261789999999999736e+02
-3.091399999999999864e+02
-2.889169999999999732e+02
-2.661639999999999873e+02
-2.415949999999999989e+02
-2.159600000000000080e+02
-1.900149999999999864e+02
-1.644840000000000089e+02
-1.400430000000000064e+02
-1.172849999999999966e+02
-9.670789999999999509e+01
-7.868859999999999388e+01
-6.344720000000000226e+01
-5.097339999999999804e+01
-4.086379999999999768e+01
-3.205100000000000193e+01
-2.413909999999999911e+01
-2.375339999999999918e+01
-2.319600000000000151e+01
-6.443979999999999819e+00
-9.857770000000000366e+00
-9.134740000000000748e+00
-5.258370000000000211e+00
-5.248789999999999623e+00
-9.130119999999999791e+00
-9.863989999999999370e+00
-6.453899999999999970e+00
-1.657400000000000162e+01
-1.349619999999999997e+01
-1.205940000000000012e+01
-1.121829999999999927e+01
-1.051350000000000051e+01
-9.826439999999999841e+00
-9.120969999999999800e+00
-8.404659999999999798e+00
-7.694899999999999629e+00
-7.008160000000000167e+00
-6.351729999999999876e+00
-5.702630000000000088e+00
-4.940210000000000434e+00
-3.644989999999999952e+00
-1.337730000000000086e+00
-4.649900000000000144e-01
6.501559999999999562e-01
-5.122210000000000374e-01
5.543010000000000298e-02
2.121739999999999959e+00
4.209819999999999673e+00
5.190970000000000084e+00
5.786170000000000258e+00
6.364300000000000068e+00
6.999010000000000176e+00
7.687689999999999912e+00
8.417970000000000397e+00
9.181919999999999860e+00
9.976929999999999410e+00
1.079850000000000065e+01
1.162459999999999916e+01
1.233450000000000024e+01
1.262299999999999933e+01
1.152839999999999954e+01
1.762340000000000018e+00
2.052049999999999930e+00
3.598139999999999894e+00
-2.816600000000000215e+00
-1.064939999999999998e+00
-1.058829999999999938e+00
-9.591419999999999391e+00
-1.873189999999999955e+01
-3.511460000000000292e+01
-6.735389999999999588e+01
-1.037009999999999934e+02
-1.020750000000000028e+02
-9.982739999999999725e+01
-6.975050000000000239e+01
-3.574369999999999692e+01
-2.151800000000000068e+01
-1.248339999999999961e+01
-7.817890000000000228e+00
-7.672719999999999985e+00
-7.240269999999999762e+00
2.258640000000000092e-01
-9.501530000000000697e+00
-8.747199999999999420e+00
-5.270780000000000243e+00
2.825629999999999953e+01
-3.385530000000000150e+00
4.967690000000000161e+00
1.949769999999999825e+01
2.466740000000000044e-01
-6.026500000000000190e-01
4.778279999999999750e-01
-5.476400000000000157e-01
-1.327930000000000055e+00
-3.685439999999999827e+00
-4.974459999999999660e+00
-5.719999999999999751e+00
-6.358850000000000335e+00
-7.010299999999999976e+00
-7.694810000000000372e+00
-8.403529999999999944e+00
-9.119210000000000704e+00
-9.824109999999999232e+00
-1.051040000000000063e+01
-1.121419999999999995e+01
-1.205359999999999943e+01
-1.348869999999999969e+01
-1.657160000000000011e+01
1.152779999999999916e+01
1.262059999999999960e+01
1.233339999999999925e+01
1.162410000000000032e+01
1.079819999999999958e+01
9.976860000000000284e+00
9.182259999999999422e+00
8.419000000000000483e+00
7.690000000000000391e+00
7.003709999999999880e+00
6.373389999999999667e+00
5.801899999999999835e+00
5.215360000000000440e+00
4.211669999999999803e+00
2.084290000000000198e+00
3.604350000000000165e+00
1.593920000000000003e+00
1.222569999999999935e+00
-8.294759999999999911e-01
-1.071830000000000060e+00
-2.935529999999999973e+00
-1.264530000000000065e+01
-2.156459999999999866e+01
-3.702499999999999858e+01
-7.379099999999999682e+01
-1.118569999999999993e+02
-1.149380000000000024e+02
-1.171050000000000040e+02
-7.287640000000000384e+01
-3.563269999999999982e+01
-1.828130000000000166e+01
-9.235630000000000450e+00
-6.789119999999999600e+00
-7.280969999999999942e+00
-7.650590000000000224e+00
-4.388300000000000090e+00
-7.887900000000000134e+00
-9.423640000000000683e+00
-1.248789999999999978e+01
-5.163859999999999673e+00
3.255640000000000089e+00
1.622429999999999950e+01
7.486869999999999692e+00
5.439840000000000231e+00
-3.489619999999999944e+00
2.481640000000000068e+00
3.025489999999999924e+01
-5.421859999999999680e+00
1.769519999999999982e+00
2.719259999999999877e+01
-9.825300000000000011e+01
-1.017879999999999967e+02
-1.038649999999999949e+02
-1.045699999999999932e+02
1.429870000000000019e+01
7.332919999999999661e+00
5.571579999999999977e+00
-1.181780000000000008e+01
-4.347249999999999837e+00
5.332279999999999909e+00
-6.576459999999999972e+00
-6.939939999999999998e+00
-7.479390000000000427e+00
-8.047159999999999869e+00
-4.631300000000000416e+00
-7.899280000000000079e+00
-9.293559999999999377e+00
-6.732999999999999829e+01
-3.551400000000000290e+01
-1.863100000000000023e+01
-9.300309999999999633e+00
-1.288569999999999993e+01
-2.114110000000000156e+01
-3.475209999999999866e+01
-6.664610000000000412e+01
2.680089999999999972e-01
1.788129999999999997e-01
-3.973600000000000049e-02
1.187030000000000030e-01
-2.983769999999999811e+00
1.884009999999999962e+01
-1.330869999999999997e+00
-3.363340000000000218e-01
-2.043010000000000104e-01
4.326420000000000265e-02
1.967440000000000022e-01
-1.435200000000000087e-01
1.074830000000000041e+01
-3.510159999999999947e-01
6.561409999999999465e-02
-7.149240000000000039e-01
1.296899999999999997e-01
1.275000000000000022e-01
1.959210000000000118e-01
3.607750000000000123e-01
4.403090000000000059e-01
8.676120000000000498e-01
6.537330000000000085e-01
5.726040000000000019e-01
-4.643670000000000186e+00
-7.936689999999999579e+00
-9.414680000000000604e+00
-9.279360000000000497e+00
-1.838800000000000168e+01
-3.575950000000000273e+01
-7.233710000000000662e+01
1.578580000000000005e+01
7.471790000000000376e+00
5.680729999999999613e+00
-1.217430000000000057e+01
-4.454970000000000319e+00
4.984390000000000320e+00
-7.288230000000000075e+01
-3.661260000000000048e+01
-2.157150000000000034e+01
-1.273780000000000001e+01
-5.198680000000000412e+00
1.652979999999999894e+00
2.915579999999999927e+01
-1.169429999999999978e+02
-1.162630000000000052e+02
-1.140759999999999934e+02
-1.104440000000000026e+02
-7.899600000000000399e+00
-7.531500000000000306e+00
-7.060469999999999580e+00
-6.715300000000000047e+00
8.912240000000000439e-02
1.177350000000000063e-01
2.312919999999999976e-01
-1.658149999999999902e-01
-1.917409999999999948e-01
-1.483829999999999982e+00
-9.924119999999999608e-01
-8.353499999999999814e-03
2.295260000000000078e-01
4.497160000000000046e-01
4.273819999999999841e-01
3.185479999999999978e-01
1.884629999999999939e+01
-2.734480000000000022e+00
-7.957069999999999421e-02
8.771820000000000173e-01
-4.226449999999999929e-01
7.343950000000000422e+00
-1.427200000000000135e-01
-7.519330000000000458e-02
-2.394589999999999826e-03
-1.090649999999999953e-01
2.275230000000000030e-01
7.097489999999999355e-02
-1.615540000000000032e-02
1.349660000000000026e-01
1.313560000000000075e-02
1.534660000000000017e-02
1.035490000000000022e-02
2.951130000000000159e-03
9.259700000000000266e-04
2.186019999999999890e-03
-1.701119999999999976e-03
2.318550000000000125e-02
3.055810000000000123e-02
3.035320000000000032e-02
2.419059999999999960e-02
4.313159999999999911e-03
7.393560000000000410e-03
1.215989999999999953e-02
3.228710000000000191e-01
2.365639999999999965e-01
1.036409999999999970e-01
3.561240000000000239e-02
1.441489999999999959e-02
2.859280000000000155e-02
2.753680000000000017e-02
2.142890000000000159e-03
4.582859999999999712e-02
1.157630000000000048e-01
2.706319999999999837e-01
4.336889999999999912e-01
-2.873380000000000031e-02
2.593040000000000015e-03
8.048239999999999908e-03
-4.006219999999999573e-03
2.311779999999999946e-01
1.186480000000000035e-01
8.329590000000000605e-02
-1.149079999999999963e-01
-1.977850000000000094e-02
-9.297519999999999396e-02
-1.522050000000000070e-01
2.993020000000000125e-01
4.008769999999999833e-01
3.988670000000000271e-01
2.100059999999999948e-03
9.171590000000000298e-03
1.462349999999999935e-02
1.311900000000000045e-02
1.226149999999999983e-02
7.342330000000000211e-03
4.162449999999999831e-03
2.346480000000000093e-02
2.922140000000000154e-02
2.933989999999999862e-02
2.249009999999999898e-02
-2.116160000000000176e-03
2.045420000000000051e-03
1.123780000000000005e-03
4.146310000000000273e-01
2.629839999999999955e-01
1.136930000000000024e-01
4.609629999999999977e-02
-5.069019999999999603e-03
5.643229999999999948e-03
8.305520000000000264e-03
-8.439349999999999630e-02
3.332829999999999820e-02
9.845859999999999335e-02
2.254529999999999867e-01
3.095410000000000106e-01
-1.397909999999999951e-02
2.901480000000000031e-02
2.860549999999999898e-02
1.439889999999999920e-02
-1.778380000000000072e+00
-1.607750000000000012e-01
-1.007040000000000018e-01
2.032779999999999865e-01
-5.178080000000000183e-02
-1.139920000000000044e+00
1.095290000000000066e-03
-2.620899999999999785e+00
1.797139999999999915e+01
6.078400000000000247e+00
-4.726000000000000201e-01
8.150100000000000122e-01
4.387840000000000074e-01
2.896210000000000173e-01
1.244669999999999943e-01
5.027240000000000181e-02
2.417860000000000148e-02
2.746929999999999858e-02
2.607709999999999889e-02
1.983249999999999943e-02
3.516690000000000094e-02
1.070070000000000049e-01
2.494589999999999863e-01
3.346620000000000150e-01
1.155229999999999972e-02
7.872370000000000062e-03
6.020799999999999763e-03
5.133969999999999853e-03
-3.487660000000000066e-03
-8.112590000000000469e-04
1.151289999999999909e-03
-8.082849999999999497e-04
2.096459999999999990e-02
2.825580000000000105e-02
2.942000000000000171e-02
2.451729999999999882e-02
3.185939999999999883e-01
2.342180000000000095e-01
1.026119999999999949e-01
3.399060000000000276e-02
-1.275040000000000062e-01
-4.514850000000000113e-02
2.649489999999999831e-02
-9.875939999999999719e-02
4.849429999999999713e-02
1.199149999999999938e-01
2.741709999999999980e-01
4.284370000000000123e-01
4.674499999999999766e-01
4.709119999999999973e-01
3.829980000000000051e-01
2.771730000000000027e-01
8.427870000000000066e-04
2.428630000000000198e-03
2.115750000000000063e-04
-2.750639999999999943e-03
8.826929999999999499e-02
8.416010000000000157e-02
1.614859999999999907e-01
2.860500000000000265e-01
5.390940000000000315e-03
6.369239999999999971e-03
8.224020000000000288e-03
1.170170000000000064e-02
-1.048259999999999970e+00
-3.846299999999999719e-02
2.290379999999999916e-01
8.632870000000000266e-01
-4.668999999999999817e-01
6.891700000000000159e+00
-1.875340000000000062e-01
-2.215570000000000039e-01
-1.676039999999999974e+00
1.836240000000000094e+01
-2.820059999999999789e+00
-2.597630000000000078e-02
1.314629999999999965e+00
6.616640000000000299e-01
-2.228070000000000050e-01
-1.110640000000000072e+00
8.599649999999999794e-01
4.676310000000000189e-01
-1.907480000000000009e-01
-7.113629999999999676e-01
1.483909999999999951e-01
6.397419999999999496e-02
3.368349999999999816e-02
1.674700000000000147e-02
1.084829999999999996e-02
1.260170000000000040e-02
1.358219999999999913e-02
-1.944190000000000154e-02
-1.711610000000000076e-01
2.826110000000000011e-01
1.648650000000000115e-01
9.020000000000000240e-02
4.848419999999999813e-02
2.401740000000000125e-02
9.860380000000000186e-03
-4.716749999999999589e-03
-5.200910000000000255e-02
-2.291040000000000021e-01
-1.625260000000000038e-01
-1.554230000000000021e-02
1.408069999999999981e-02
1.985010000000000160e-03
-2.089440000000000047e-02
-4.914929999999999993e-02
-8.642980000000000107e-02
-1.453329999999999900e-01
-2.313129999999999908e-01
-1.611909999999999954e+00
-2.054809999999999803e+00
-1.973619999999999930e+00
-1.501880000000000104e+00
-3.047709999999999919e+00
-4.428770000000000095e+00
-4.228040000000000020e+00
-2.858740000000000059e+00
5.379180000000000073e-01
8.552840000000000442e-01
-1.630969999999999920e-01
1.857489999999999836e-02
1.794679999999999886e-01
3.222269999999999857e-01
2.978999999999999981e-01
3.083110000000000017e-01
-6.297229999999999495e-02
1.005569999999999936e-01
2.699400000000000133e-01
3.518709999999999893e-01
-1.410980000000000012e-01
8.159619999999999373e-03
1.671320000000000028e-01
2.812109999999999888e-01
-1.570130000000000137e-01
-3.266009999999999747e-02
9.777320000000000455e-02
2.116879999999999873e-01
-1.524240000000000039e-01
-4.547849999999999809e-02
5.987239999999999923e-02
1.671219999999999928e-01
-1.471480000000000010e-01
-4.653709999999999791e-02
4.488799999999999735e-02
1.495199999999999863e-01
-1.437930000000000041e-01
-4.076840000000000325e-02
4.580359999999999987e-02
1.522540000000000004e-01
-1.397410000000000041e-01
-2.812030000000000085e-02
5.908669999999999894e-02
1.686580000000000024e-01
-1.369930000000000037e-01
-1.254380000000000078e-02
7.777839999999999754e-02
1.890779999999999961e-01
-1.581410000000000038e-01
-1.946880000000000138e-02
7.164560000000000373e-02
1.877089999999999870e-01
-2.735890000000000266e-01
-1.385029999999999872e-01
-4.962110000000000132e-02
9.131649999999999490e-02
-6.358810000000000295e-01
-5.884589999999999543e-01
-5.061330000000000551e-01
-2.701890000000000125e-01
-1.537670000000000092e+00
-1.830449999999999910e+00
-1.771500000000000075e+00
-1.161640000000000006e+00
-3.307350000000000012e+00
-4.685599999999999987e+00
-4.514300000000000423e+00
-2.862719999999999931e+00
-3.006889999999999841e+00
-3.348860000000000170e+00
-3.983919999999999906e+00
-4.833059999999999690e+00
-5.760860000000000092e+00
-6.650850000000000151e+00
-7.499430000000000263e+00
-8.328879999999999839e+00
-9.142150000000000887e+00
-9.933709999999999596e+00
-1.069100000000000072e+01
-1.141799999999999926e+01
-1.248850000000000016e+01
-1.417430000000000057e+01
-1.745240000000000080e+01
-2.123180000000000067e+00
-3.787450000000000205e+00
-4.532829999999999693e+00
-5.176689999999999792e+00
-5.950610000000000177e+00
-6.751179999999999737e+00
-7.551309999999999967e+00
-8.349679999999999325e+00
-9.139760000000000773e+00
-9.912349999999999994e+00
-1.065719999999999956e+01
-1.138940000000000019e+01
-1.241169999999999973e+01
-1.402469999999999928e+01
-1.723349999999999937e+01
-1.705929999999999946e+00
-3.696219999999999839e+00
-4.693950000000000067e+00
-5.381920000000000037e+00
-6.089120000000000310e+00
-6.824709999999999610e+00
-7.578780000000000072e+00
-8.343049999999999855e+00
-9.105359999999999232e+00
-9.854020000000000223e+00
-1.058109999999999928e+01
-1.130799999999999983e+01
-1.227650000000000041e+01
-1.382109999999999950e+01
-1.694010000000000105e+01
-1.460679999999999978e+00
-3.518569999999999975e+00
-4.704989999999999561e+00
-5.470679999999999765e+00
-6.156419999999999781e+00
-6.848779999999999646e+00
-7.561650000000000205e+00
-8.288859999999999673e+00
-9.017490000000000450e+00
-9.733950000000000102e+00
-1.043169999999999931e+01
-1.113429999999999964e+01
-1.201849999999999952e+01
-1.348770000000000024e+01
-1.654119999999999990e+01
3.240920000000000023e+00
3.513809999999999878e+00
4.066709999999999603e+00
4.861609999999999765e+00
5.762179999999999858e+00
6.642120000000000246e+00
7.489910000000000068e+00
8.327830000000000510e+00
9.167600000000000193e+00
1.001720000000000077e+01
1.085999999999999943e+01
1.161800000000000033e+01
1.236270000000000024e+01
1.268750000000000000e+01
1.163710000000000022e+01
2.492739999999999956e+00
4.089120000000000310e+00
4.680030000000000356e+00
5.226930000000000298e+00
5.959399999999999586e+00
6.747569999999999624e+00
7.549680000000000391e+00
8.362159999999999371e+00
9.186529999999999418e+00
1.002590000000000003e+01
1.086550000000000082e+01
1.164049999999999940e+01
1.237090000000000067e+01
1.267999999999999972e+01
1.165130000000000088e+01
2.235990000000000144e+00
4.100570000000000270e+00
4.888300000000000090e+00
5.449550000000000338e+00
6.104000000000000092e+00
6.826299999999999812e+00
7.586590000000000167e+00
8.372870000000000701e+00
9.180849999999999511e+00
1.001099999999999923e+01
1.085139999999999993e+01
1.164409999999999989e+01
1.235159999999999947e+01
1.262040000000000006e+01
1.160050000000000026e+01
2.049399999999999888e+00
3.963690000000000158e+00
4.912020000000000053e+00
5.540720000000000312e+00
6.171549999999999869e+00
6.851820000000000022e+00
7.574449999999999683e+00
8.329879999999999285e+00
9.114150000000000418e+00
9.927559999999999718e+00
1.076360000000000028e+01
1.157610000000000028e+01
1.227570000000000050e+01
1.252909999999999968e+01
1.148349999999999937e+01
-7.760650000000000048e-01
-1.000250000000000028e-01
-2.781689999999999996e-01
9.090460000000000207e-01
-1.542960000000000109e+00
-2.154490000000000016e-01
-3.189400000000000013e-01
1.379580000000000028e+00
-1.387429999999999941e+00
-1.539939999999999920e-01
-6.786419999999999675e-01
9.939480000000000537e-01
-1.292780000000000040e+00
-2.146240000000000092e-01
-6.616880000000000539e-01
8.279539999999999678e-01
-5.600859999999999950e+00
-8.659819999999999851e+00
-7.799419999999999575e+00
-4.236589999999999634e+00
-5.537289999999999601e+00
-8.570380000000000109e+00
-7.713239999999999874e+00
-4.196449999999999569e+00
-5.531859999999999999e+00
-8.500529999999999475e+00
-7.689129999999999576e+00
-4.202720000000000233e+00