<VTKFile type="UnstructuredGrid" version="0.1" byte_order="LittleEndian" header_type="UInt32" compressor="vtkZLibDataCompressor">
<UnstructuredGrid><Piece NumberOfPoints="285" NumberOfCells="116">
<PointData>
<DataArray Name="S11" type="Float64" format="ASCII">
7.658293694257736206e-01
1.276131629943847656e+00
-1.749888241291046143e+00
-5.811929047107696533e+00
6.386272013187408447e+00
-4.819013774394989014e+00
1.997048664093017578e+01
-1.810606145858764648e+01
-1.461569046974182129e+01
2.516462421417236328e+01
-5.911138296127319336e+00
-1.405571556091308594e+01
2.516377258300781250e+01
4.530571758747100830e+00
3.967439353466033936e+00
-4.296393632888793945e+00
-7.509062811732292175e-01
1.429289072751998901e+00
2.526843070983886719e+01
-1.416221189498901367e+01
-1.461151218414306641e+01
2.516218137741088867e+01
5.536805093288421631e+00
1.998531961441040039e+01
-5.160905838012695312e+00
-1.813694477081298828e+01
-2.310996234416961670e+00
-4.828328669071197510e+00
-3.029012222290039062e+02
1.911051559448242188e+02
-1.416220998764038086e+01
-1.427304220199584961e+01
2.526843833923339844e+01
2.538129615783691406e+01
5.736196041107177734e-01
-2.903101205825805664e+00
-5.671560525894165039e+00
-2.503308296203613281e+01
-3.868044090270996094e+01
-2.363398313522338867e+00
-4.296391487121582031e+00
3.967438951134681702e+00
-2.546065688133239746e+00
-4.466500854492187500e+01
-3.384057331085205078e+01
-6.120812058448791504e+00
-3.301193332672119141e+01
-2.557122802734375000e+01
-2.225471258163452148e+00
-7.218825817108154297e+00
-5.080873686820268631e-01
1.410469532012939453e+00
-1.134142875671386719e-01
-1.649724602699279785e+00
-6.120811104774475098e+00
-3.384056854248046875e+01
-2.546063870191574097e+00
-4.466500091552734375e+01
-6.897867843508720398e-01
-9.141855388879776001e-01
6.872238591313362122e-01
5.000233715400099754e-01
-9.571941196918487549e-02
-1.889937818050384521e-01
-2.051523923873901367e-01
-1.396595537662506104e-01
-4.238168001174926758e-01
-5.301274508237838745e-01
-7.604146003723144531e-02
-1.755435168743133545e-01
4.762118160724639893e-01
-1.096534252166748047e+00
-1.436052441596984863e+00
2.229019850492477417e-01
-2.051524668931961060e-01
-6.897870451211929321e-01
5.000237748026847839e-01
-1.889935582876205444e-01
1.392835259437561035e+00
-4.493345975875854492e+00
-6.878602743148803711e+00
1.512718725204467773e+01
1.058527565002441406e+01
-9.447863459587097168e+00
-1.370960736274719238e+01
-5.476779222488403320e+00
7.751461267471313477e-01
-1.583159351348876953e+01
-1.160151863098144531e+01
-9.141094207763671875e+00
-6.591001510620117188e+00
-1.057232379913330078e+00
9.078907966613769531e+00
1.262343454360961914e+01
1.621445703506469727e+01
2.073977851867675781e+01
1.544389843940734863e+00
1.361976817250251770e+00
-1.059757709503173828e+00
-5.475214719772338867e+00
1.511567449569702148e+01
1.062400126457214355e+01
9.738308429718017578e+00
1.264202737808227539e+01
1.621562480926513672e+01
2.076088142395019531e+01
-9.494606733322143555e+00
-1.366649508476257324e+01
-1.583105421066284180e+01
-1.158909606933593750e+01
-9.137860774993896484e+00
-7.259547710418701172e+00
-6.868396520614624023e+00
-4.390611410140991211e+00
6.516784667968750000e+00
-6.408609867095947266e+01
-1.670820083618164062e+02
-2.588645019531250000e+02
-2.957682037353515625e+02
-2.588611755371093750e+02
-1.670662040710449219e+02
-6.405778026580810547e+01
6.491489410400390625e+00
7.643040657043457031e+00
-6.401691579818725586e+01
-1.697398452758789062e+02
-2.646496505737304688e+02
-2.646497306823730469e+02
-1.697393760681152344e+02
-6.401828193664550781e+01
7.645925998687744141e+00
3.110330581665039062e+00
4.746507072448730469e+01
1.133239903450012207e+02
1.729940223693847656e+02
1.967574081420898438e+02
1.729942283630371094e+02
1.133313255310058594e+02
4.746563720703125000e+01
3.077531814575195312e+00
1.683692073822021484e+02
1.110233044624328613e+02
4.749647617340087891e+01
3.795574188232421875e+00
3.794033050537109375e+00
4.749625873565673828e+01
1.110236597061157227e+02
1.683690624237060547e+02
-1.951257848739624023e+01
3.077531814575195312e+00
4.746561050415039062e+01
1.133308839797973633e+02
1.729918823242187500e+02
1.967534027099609375e+02
1.729924049377441406e+02
1.133377676010131836e+02
4.746608734130859375e+01
3.047529220581054688e+00
6.536332130432128906e+00
-6.411188697814941406e+01
-1.670979118347167969e+02
-2.588647918701171875e+02
-2.957630767822265625e+02
-2.588615798950195312e+02
-1.670813980102539062e+02
-6.408601188659667969e+01
6.516810417175292969e+00
-1.061046123504638672e+00
-1.059756278991699219e+00
2.075000095367431641e+01
1.632673454284667969e+01
1.241265487670898438e+01
9.770908355712890625e+00
-9.792501926422119141e-01
-7.097566843032836914e+00
-8.905911922454833984e+00
-1.168644857406616211e+01
-1.580346107482910156e+01
-1.760827851295471191e+01
-2.192403006553649902e+01
1.544391036033630371e+00
9.738308429718017578e+00
1.264202976226806641e+01
1.621562576293945312e+01
2.076088523864746094e+01
-1.583105611801147461e+01
-1.158909559249877930e+01
-9.137859344482421875e+00
-7.259546279907226562e+00
-2.571831035614013672e+01
-2.422956609725952148e+01
-4.965791583061218262e+00
-5.727808237075805664e+00
-4.641512155532836914e+00
-1.140563964843750000e+00
7.027816772460937500e-01
-4.862876653671264648e+00
-5.325373291969299316e+00
-4.513056993484497070e+00
-1.872179138660430908e+01
-1.898828184604644775e+01
1.772035373374819756e+00
-4.798479229211807251e-01
-4.965789437294006348e+00
-2.422956275939941406e+01
-4.641515016555786133e+00
-5.727805733680725098e+00
-2.571830773353576660e+01
-1.140559196472167969e+00
-4.345317602157592773e+00
-4.844502449035644531e+00
-1.996229112148284912e+00
-4.690691620111465454e+00
1.669394627213478088e+00
1.963382236659526825e+00
-9.327267936896532774e-03
2.108851894736289978e-01
9.516104012727737427e-01
6.174005195498466492e-02
2.709553539752960205e-01
-3.051943302154541016e+00
-4.788691997528076172e+00
-1.507174134254455566e+00
-4.738784343004226685e+00
4.295203685760498047e-01
2.108853012323379517e-01
1.669394239783287048e+00
-4.844502925872802734e+00
-4.690689802169799805e+00
-4.345317959785461426e+00
-1.996230483055114746e+00
1.396911501884460449e+00
2.160804510116577148e+00
2.838263750076293945e+00
2.214417457580566406e+00
1.551862120628356934e+00
2.106113672256469727e+00
2.851406574249267578e+00
2.215044975280761719e+00
-3.610377177596092224e+00
-9.185432195663452148e+00
-1.403086352348327637e+01
-1.798559856414794922e+01
-1.798556065559387207e+01
-1.403087389469146729e+01
-9.185599803924560547e+00
-3.610589459538459778e+00
-4.950607180595397949e+00
-9.189565658569335938e+00
-1.155262041091918945e+01
-1.289426112174987793e+01
-1.326837158203125000e+01
-1.289447903633117676e+01
-1.155472469329833984e+01
-9.194968223571777344e+00
-4.956409037113189697e+00
-4.962393045425415039e+00
-9.200432777404785156e+00
-1.155650854110717773e+01
-1.289480853080749512e+01
-1.326896762847900391e+01
-1.289441180229187012e+01
-1.155465531349182129e+01
-9.194933891296386719e+00
-4.956400632858276367e+00
2.213809728622436523e+00
2.866626262664794922e+00
2.044838070869445801e+00
2.106688201427459717e+00
1.551863670349121094e+00
2.106114029884338379e+00
2.851406812667846680e+00
2.215044975280761719e+00
-5.105322003364562988e-01
-4.432775259017944336e+00
-4.281666755676269531e+00
-7.810897231101989746e-01
-4.432773232460021973e+00
-5.105277895927429199e-01
-4.141685515642166138e+00
-1.122597549110651016e+00
-4.022892057895660400e+00
-1.107090197503566742e+00
-4.141687244176864624e+00
-1.122598718851804733e+00
</DataArray>
<DataArray Name="S22" type="Float64" format="ASCII">
-2.197029805183410645e+01
2.180556952953338623e+01
5.846324682235717773e+00
4.735908412933349609e+01
-4.314168834686279297e+01
1.333370542526245117e+01
-1.321024875640869141e+02
1.377180023193359375e+02
1.414466133117675781e+02
-1.679519615173339844e+02
3.637799263000488281e+01
1.420160446166992188e+02
-1.647098999023437500e+02
-3.256669902801513672e+01
-3.348875999450683594e+01
3.770164680480957031e+01
2.610056591033935547e+01
-2.262260198593139648e+01
-1.648394546508789062e+02
1.420182266235351562e+02
1.414389419555664062e+02
-1.679460449218750000e+02
-4.180113554000854492e+01
-1.321150074005126953e+02
4.478282308578491211e+01
1.377420539855957031e+02
5.993944406509399414e+00
1.334016346931457520e+01
4.771632575988769531e+01
-1.619158172607421875e+01
1.420182342529296875e+02
1.420338592529296875e+02
-1.648394775390625000e+02
-1.649842834472656250e+02
-2.518468427658081055e+01
2.348629426956176758e+01
-1.006190776824951172e+01
1.360072135925292969e+01
2.289696002006530762e+01
-1.638119459152221680e+01
3.770163917541503906e+01
-3.348876094818115234e+01
-2.039027357101440430e+01
2.569189119338989258e+01
1.181932854652404785e+01
-1.057547426223754883e+01
2.051353263854980469e+01
1.128383612632751465e+01
-1.608594715408980846e+01
-6.392235875129699707e+00
7.673360630869865417e-01
-1.532231554388999939e+00
-3.735718250274658203e+00
1.219146013259887695e+00
-1.057546997070312500e+01
1.181933522224426270e+01
-2.039027214050292969e+01
2.569189739227294922e+01
1.106685593724250793e+00
1.653146201744675636e+00
1.857803188264369965e+00
1.925727322697639465e+00
3.927265107631683350e-01
6.902875304222106934e-01
6.009153127670288086e-01
4.522368907928466797e-01
6.523624956607818604e-01
1.982940658926963806e+00
8.172127306461334229e-01
4.532728195190429688e-01
1.755734086036682129e-01
2.125158548355102539e+00
3.074542522430419922e+00
6.959737539291381836e-01
6.009160876274108887e-01
1.106687135994434357e+00
1.925725150853395462e+00
6.902867555618286133e-01
-4.486272335052490234e-01
1.239805030822753906e+01
1.805293083190917969e+01
-1.004597663879394531e+02
-7.159138870239257812e+01
7.728004455566406250e+01
1.075140075683593750e+02
7.414926290512084961e+00
-6.788129806518554688e-01
1.347166137695312500e+02
1.054397239685058594e+02
7.838414382934570312e+01
5.214409637451171875e+01
1.077757835388183594e+00
-5.010268211364746094e+01
-7.416817665100097656e+01
-1.004832649230957031e+02
-1.303070716857910156e+02
-1.309573411941528320e+00
-2.351942062377929688e-01
1.030575752258300781e+00
7.413287401199340820e+00
-1.004479980468750000e+02
-7.166666126251220703e+01
-5.101918601989746094e+01
-7.427139091491699219e+01
-1.005413589477539062e+02
-1.305081481933593750e+02
7.751111507415771484e+01
1.074951438903808594e+02
1.348043518066406250e+02
1.053845558166503906e+02
7.834260559082031250e+01
5.361050033569335938e+01
1.806869423389434814e+01
1.225653851032257080e+01
-1.794547882080078125e+02
-1.395396995544433594e+02
-6.061448955535888672e+01
1.593100166320800781e+01
4.749429702758789062e+01
1.593363189697265625e+01
-6.059772980213165283e+01
-1.394677047729492188e+02
-1.792742614746093750e+02
-1.850417671203613281e+02
-1.456560020446777344e+02
-6.429258465766906738e+01
1.492695999145507812e+01
1.492702388763427734e+01
-6.429297661781311035e+01
-1.456547241210937500e+02
-1.850453681945800781e+02
1.308938903808593750e+02
1.055299215316772461e+02
5.416947555541992188e+01
4.542497634887695312e+00
-1.601817607879638672e+01
4.541948318481445312e+00
5.417140769958496094e+01
1.055526180267333984e+02
1.309659767150878906e+02
3.432449340820312500e+00
5.113377857208251953e+01
1.006418633460998535e+02
1.258898506164550781e+02
1.258925361633300781e+02
1.006412730216979980e+02
5.113375186920166016e+01
3.432520866394042969e+00
-3.376039028167724609e+00
1.309659881591796875e+02
1.055525035858154297e+02
5.417128372192382812e+01
4.542407989501953125e+00
-1.601751232147216797e+01
4.541824340820312500e+00
5.417292022705078125e+01
1.055771093368530273e+02
1.310324020385742188e+02
-1.796296310424804688e+02
-1.396140403747558594e+02
-6.063061475753784180e+01
1.592765998840332031e+01
4.749226760864257812e+01
1.593032169342041016e+01
-6.061438906192779541e+01
-1.395397453308105469e+02
-1.794548950195312500e+02
9.829072952270507812e-01
1.030573844909667969e+00
-1.306523323059082031e+02
-1.007856636047363281e+02
-7.412525749206542969e+01
-4.989023971557617188e+01
-1.006088137626647949e+00
5.311908340454101562e+01
7.786439895629882812e+01
1.055522117614746094e+02
1.348457221984863281e+02
5.548850804567337036e+00
5.314843416213989258e+00
-1.309581756591796875e+00
-5.101920127868652344e+01
-7.427139663696289062e+01
-1.005413665771484375e+02
-1.305081634521484375e+02
1.348043594360351562e+02
1.053845596313476562e+02
7.834259033203125000e+01
5.361048507690429688e+01
5.443031728267669678e+00
7.735145390033721924e+00
-2.171627378463745117e+01
-1.946392679214477539e+01
2.133012568950653076e+01
1.920454978942871094e+01
1.486896467208862305e+01
2.067510008811950684e+01
-1.724517250061035156e+01
-2.052079582214355469e+01
6.479451432824134827e+00
4.319878563284873962e+00
-2.709387976676225662e+00
-1.778452485799789429e+00
-2.171627140045166016e+01
7.735147953033447266e+00
2.133014631271362305e+01
-1.946393203735351562e+01
5.443034529685974121e+00
1.920455360412597656e+01
2.342105865478515625e+00
2.170861542224884033e+00
-3.863799214363098145e+00
-2.059841632843017578e+00
-1.923793524503707886e+00
-2.314876772463321686e+00
2.283404693007469177e-01
-1.477320119738578796e-01
-1.210578732192516327e+00
2.509329244494438171e-01
2.034851536154747009e-02
-5.895211696624755859e-01
2.128768432885408401e+00
-2.494895577430725098e+00
-1.006289243698120117e+00
1.750600337982177734e-02
-1.477320641279220581e-01
-1.923793345689773560e+00
2.170864343643188477e+00
-2.059848546981811523e+00
2.342108368873596191e+00
-3.863801479339599609e+00
1.191387176513671875e+00
2.591550827026367188e+00
3.361014366149902344e+00
5.135458946228027344e+00
9.727928638458251953e-01
2.623373508453369141e+00
3.308188438415527344e+00
5.080678939819335938e+00
-8.830347776412963867e+00
-7.205894589424133301e+00
-5.959661960601806641e+00
-4.134212255477905273e+00
-4.134251356124877930e+00
-5.959658622741699219e+00
-7.205716133117675781e+00
-8.830521106719970703e+00
-2.589545249938964844e+00
-1.897003173828125000e+00
-2.632723808288574219e+00
-3.031988620758056641e+00
-3.326124191284179688e+00
-3.034311771392822266e+00
-2.641175270080566406e+00
-1.922182083129882812e+00
-2.638075590133666992e+00
-2.686243295669555664e+00
-1.947306156158447266e+00
-2.650025367736816406e+00
-3.036525487899780273e+00
-3.326231956481933594e+00
-3.034368991851806641e+00
-2.641270637512207031e+00
-1.922255992889404297e+00
-2.638119220733642578e+00
5.032919883728027344e+00
3.259808540344238281e+00
2.537932395935058594e+00
7.303643226623535156e-01
9.727890491485595703e-01
2.623365402221679688e+00
3.308180809020996094e+00
5.080668449401855469e+00
-5.678201198577880859e+00
-4.477270841598510742e-01
-3.809985518455505371e-01
-4.172785848379135132e+00
-4.477206468582153320e-01
-5.678198516368865967e+00
-8.373829126358032227e-01
-4.728490293025970459e+00
-6.082600653171539307e-01
-3.867464423179626465e+00
-8.373810648918151855e-01
-4.728488385677337646e+00
</DataArray>
<DataArray Name="S33" type="Float64" format="ASCII">
-4.932589828968048096e+00
2.384835064411163330e+00
-1.139621734619140625e-01
1.791237011551856995e+00
1.381979465484619141e+00
-8.288049697875976562e-02
1.683459305763244629e+01
-7.450922489166259766e+00
-9.787248611450195312e+00
1.877448368072509766e+01
1.708234786987304688e+00
-1.110629940032958984e+01
1.580522012710571289e+01
2.822148799896240234e-02
5.047179460525512695e-01
-2.918055057525634766e-01
7.763786792755126953e+00
-7.823289275169372559e+00
1.557010126113891602e+01
-1.082623147964477539e+01
-9.797643184661865234e+00
1.878292322158813477e+01
8.174449801445007324e-01
1.680351066589355469e+01
2.881321802735328674e+00
-7.420945167541503906e+00
-1.547719240188598633e-01
-8.284521102905273438e-02
3.295867919921875000e+01
-1.167648887634277344e+01
-1.082624387741088867e+01
-1.052749919891357422e+01
1.557010173797607422e+01
1.531817293167114258e+01
3.448557853698730469e-01
-1.825208455324172974e+00
2.058190733194351196e+00
7.023810148239135742e-01
5.053497672080993652e+00
5.069317579269409180e+00
-2.918035984039306641e-01
5.047174692153930664e-01
6.727159500122070312e+00
2.889465592801570892e+00
5.937597155570983887e+00
4.871085286140441895e-01
2.876806095242500305e+00
4.665794253349304199e+00
5.171247839927673340e+00
4.708920717239379883e-01
-7.959945648908615112e-01
-1.719599142670631409e+00
-2.897443562746047974e+00
-2.184119001030921936e-01
4.871081113815307617e-01
5.937595009803771973e+00
6.727160215377807617e+00
2.889466159045696259e+00
-1.104472983628511429e+00
-1.426534198224544525e+00
5.610154122114181519e-01
6.802923828363418579e-01
2.944359555840492249e-02
-1.748428046703338623e-01
-2.260585427284240723e-01
-1.428727805614471436e-01
-6.530471369624137878e-01
1.611042261123657227e+00
-7.633190453052520752e-01
-2.444402724504470825e-01
-1.082472950220108032e-01
2.266346663236618042e-01
3.284895122051239014e-01
-9.964605569839477539e-01
-2.260588109493255615e-01
-1.104473140090703964e+00
6.802928298711776733e-01
-1.748426407575607300e-01
-1.279469579458236694e+00
-2.266907691955566406e+00
-3.759250164031982422e+00
1.296264910697937012e+01
8.068338632583618164e+00
-3.618809938430786133e+00
-6.604325652122497559e+00
-5.422737598419189453e+00
1.987255573272705078e+00
-6.759000301361083984e+00
-6.666040658950805664e+00
-4.829517364501953125e+00
-2.787885069847106934e+00
-3.463973045349121094e+00
5.604231834411621094e+00
8.593757152557373047e+00
1.198502635955810547e+01
1.437992382049560547e+01
1.813607215881347656e+00
9.216394424438476562e-01
-3.456391334533691406e+00
-5.423648834228515625e+00
1.304997158050537109e+01
7.966304898262023926e+00
5.834000349044799805e+00
8.553013324737548828e+00
1.204337215423583984e+01
1.442108726501464844e+01
-3.489267885684967041e+00
-6.707694172859191895e+00
-6.789139270782470703e+00
-6.674502611160278320e+00
-4.677499055862426758e+00
-3.847709774971008301e+00
-3.780994892120361328e+00
-2.140483379364013672e+00
1.884651565551757812e+01
2.167840003967285156e+01
2.408591365814208984e+01
2.545639991760253906e+01
2.604534053802490234e+01
2.545126819610595703e+01
2.407752895355224609e+01
2.166954612731933594e+01
1.891782188415527344e+01
2.331024503707885742e+01
2.772434949874877930e+01
3.042243432998657227e+01
3.224662494659423828e+01
3.224679374694824219e+01
3.042194938659667969e+01
2.772558498382568359e+01
2.330789232254028320e+01
-1.406143093109130859e+01
-1.426891708374023438e+01
-1.622806596755981445e+01
-1.711766052246093750e+01
-1.749896621704101562e+01
-1.712406444549560547e+01
-1.624090576171875000e+01
-1.427833795547485352e+01
-1.398481416702270508e+01
-1.139044237136840820e+01
-1.089599084854125977e+01
-9.396950483322143555e+00
-9.629866600036621094e+00
-9.627857446670532227e+00
-9.397621870040893555e+00
-1.089574646949768066e+01
-1.139052581787109375e+01
-6.605964660644531250e+00
-1.398478937149047852e+01
-1.427823066711425781e+01
-1.624066352844238281e+01
-1.712431240081787109e+01
-1.750203132629394531e+01
-1.713060188293457031e+01
-1.625388383865356445e+01
-1.428647041320800781e+01
-1.391160583496093750e+01
1.878126907348632812e+01
2.168471527099609375e+01
2.409492206573486328e+01
2.546130657196044922e+01
2.604692173004150391e+01
2.545651054382324219e+01
2.408560943603515625e+01
2.167831230163574219e+01
1.884648418426513672e+01
-3.447587013244628906e+00
-3.456407546997070312e+00
1.449490356445312500e+01
1.200283813476562500e+01
8.788049221038818359e+00
4.792000532150268555e+00
-7.687756419181823730e-01
-2.109955132007598877e+00
-4.945283651351928711e+00
-6.637764453887939453e+00
-6.846222400665283203e+00
-1.432026624679565430e-01
4.406558185815811157e+00
1.813608407974243164e+00
5.834001541137695312e+00
8.553013801574707031e+00
1.204337310791015625e+01
1.442108821868896484e+01
-6.789140939712524414e+00
-6.674502849578857422e+00
-4.677498102188110352e+00
-3.847708582878112793e+00
4.128866046667098999e+00
3.480076193809509277e-01
-2.151794314384460449e+00
-3.642118752002716064e+00
-2.113269388675689697e+00
-3.488637924194335938e+00
-1.856003761291503906e+00
-2.096478462219238281e+00
-3.895009875297546387e+00
-1.431704640388488770e+00
8.614567518234252930e-01
3.287518560886383057e+00
-2.517004981637001038e-01
-1.439484000205993652e+00
-2.151794970035552979e+00
3.480073511600494385e-01
-2.113272070884704590e+00
-3.642117083072662354e+00
4.128866136074066162e+00
-3.488633871078491211e+00
-1.225281089544296265e+00
-5.548524521291255951e-01
-4.897237002849578857e+00
-4.006731033325195312e+00
1.463633477687835693e+00
1.560728872194886208e+00
2.906444901600480080e-02
1.849244534969329834e-01
1.578645266592502594e+00
3.038825839757919312e-01
-2.890359610319137573e-03
-4.047565460205078125e-01
-1.386298388242721558e+00
-4.411139219999313354e+00
-2.668137669563293457e+00
4.976714849472045898e-01
1.849243938922882080e-01
1.463633410632610321e+00
-5.548516251146793365e-01
-4.006730556488037109e+00
-1.225281029939651489e+00
-4.897238433361053467e+00
1.084537506103515625e+00
9.789166450500488281e-01
1.244914054870605469e+00
1.119442939758300781e+00
1.003522157669067383e+00
9.959568977355957031e-01
1.259705543518066406e+00
1.133270263671875000e+00
-4.575743198394775391e+00
-5.212265968322753906e+00
-6.183924674987792969e+00
-6.412595748901367188e+00
-6.412629127502441406e+00
-6.183826446533203125e+00
-5.212446689605712891e+00
-4.575303077697753906e+00
-9.420941352844238281e+00
-1.047834682464599609e+01
-1.197515201568603516e+01
-1.260247802734375000e+01
-1.289963531494140625e+01
-1.260368919372558594e+01
-1.197848415374755859e+01
-1.048659133911132812e+01
-9.421910285949707031e+00
-9.423202514648437500e+00
-1.049451541900634766e+01
-1.198186683654785156e+01
-1.260479736328125000e+01
-1.289982223510742188e+01
-1.260360336303710938e+01
-1.197841739654541016e+01
-1.048657894134521484e+01
-9.421911239624023438e+00
1.147566795349121094e+00
1.259528160095214844e+00
9.615559577941894531e-01
1.455067396163940430e+00
1.003522157669067383e+00
9.959573745727539062e-01
1.259707450866699219e+00
1.133267402648925781e+00
-9.405232667922973633e-01
-2.248751282691955566e+00
-1.712242305278778076e+00
-1.421030402183532715e+00
-2.248751521110534668e+00
-9.405206441879272461e-01
-2.013809919357299805e+00
-1.141791343688964844e+00
-1.598562717437744141e+00
-1.255161583423614502e+00
-2.013810813426971436e+00
-1.141791254281997681e+00
</DataArray>
</PointData>
<Points>
<DataArray type="Float64" Name="Points" NumberOfComponents="3" format="ascii" RangeMin="-29.832895" RangeMax="80.146790">
19.468510 20.106226 -0.000099
29.468674 19.974318 0.000092
25.534806 25.027249 0.000033
29.534479 24.975144 0.000116
19.534454 25.105463 -0.000092
25.779431 45.029590 0.000006
19.778676 45.094580 -0.000032
29.778711 44.985954 0.000033
29.831211 49.990458 0.000000
19.831122 50.089845 -0.000000
29.468324 19.973859 -9.999973
29.832638 49.990396 -9.998755
19.832399 50.089948 -10.001317
19.468394 20.106869 -10.000094
-19.468583 20.107111 -9.999967
-29.468589 19.973814 -10.000085
-29.469005 19.974686 -0.000000
-19.468964 20.106234 -0.000000
-19.832655 50.090066 -10.001299
-29.832895 49.990543 -9.998776
-29.831501 49.990618 -0.000000
-19.831412 50.089952 -0.000000
-19.534884 25.105555 -0.000000
-19.778990 45.094687 -0.000000
-29.534887 24.975303 -0.000000
-29.779026 44.986113 -0.000000
-25.535210 25.027407 -0.000000
-25.779748 45.029729 -0.000000
-0.000091 70.144047 0.000000
-0.000065 80.144589 -0.000000
-29.832895 49.990543 9.998776
29.832572 49.990369 9.998797
-19.832655 50.090066 10.001299
19.832333 50.089972 10.001283
19.467961 20.106830 9.999929
29.467988 19.973845 10.000240
21.400670 15.080677 10.000004
27.400000 15.000000 10.000173
27.400000 15.000000 5.000181
21.401059 15.080487 4.999972
-29.468589 19.973814 10.000085
-19.468583 20.107111 9.999967
-21.401123 15.080832 4.999990
-27.400000 15.000000 5.000036
-27.400000 15.000000 10.000052
-21.400878 15.080874 10.000053
27.400000 15.000000 -5.000055
27.400000 15.000000 -10.000031
21.400899 15.080632 -5.000018
21.400770 15.080650 -10.000057
19.333321 10.107589 0.000031
29.333472 9.973086 0.000070
29.333415 9.973018 -10.000118
19.333311 10.107541 -9.999984
-21.400878 15.080874 -10.000053
-27.400000 15.000000 -10.000052
-21.401123 15.080832 -4.999990
-27.400000 15.000000 -5.000036
-19.333205 10.107864 10.000015
-19.333226 10.107882 -0.000000
-29.333269 9.972932 -0.000000
-29.333238 9.972935 10.000041
-29.198283 -0.027071 -0.000000
-29.198287 -0.027100 9.999980
-19.198308 0.107836 9.999976
-19.198309 0.107868 -0.000000
19.333322 10.107506 10.000063
29.333298 9.973017 10.000116
19.198861 0.107520 0.000052
19.198871 0.107509 10.000006
29.198862 -0.026988 9.999996
29.198790 -0.026964 0.000009
29.198761 -0.027029 -9.999863
19.198851 0.107452 -9.999930
-19.198308 0.107836 -9.999976
-19.333205 10.107864 -10.000015
-29.333238 9.972935 -10.000041
-29.198287 -0.027100 -9.999980
24.468684 20.040287 0.000001
25.620919 31.694436 0.000018
25.703031 38.361812 0.000013
19.702466 38.432806 -0.000053
19.620484 31.769766 -0.000070
29.620522 31.644136 0.000077
29.702500 38.314496 0.000056
24.831978 50.040511 0.000000
24.468530 20.040372 -10.000002
29.768707 43.985220 -9.998852
29.699284 37.980995 -9.999073
29.625360 31.977751 -9.999298
29.548116 25.975392 -9.999595
24.833354 50.040404 -10.000089
19.548138 26.105301 -10.000360
19.625398 32.102911 -10.000638
19.699342 38.099664 -10.000852
19.768818 44.095327 -10.001077
-24.468673 20.040515 -10.000020
-24.469233 20.040398 -0.000000
-24.833612 50.040536 -10.000091
-24.832267 50.040644 -0.000000
-19.702820 38.432911 -0.000000
-19.620865 31.769881 -0.000000
-19.548363 26.105436 -10.000249
-19.625629 32.103041 -10.000571
-19.699587 38.099796 -10.000800
-19.769073 44.095451 -10.001047
-29.620906 31.644287 -0.000000
-29.702854 38.314657 -0.000000
-29.768962 43.985364 -9.998885
-29.699529 37.981136 -9.999129
-29.625592 31.977901 -9.999378
-29.548360 25.975543 -9.999721
-25.703381 38.361950 -0.000000
-25.621310 31.694572 -0.000000
-18.912337 56.272796 -10.001555
-16.117883 61.862571 -10.001823
-11.725024 66.305688 -10.002038
-6.168720 69.161347 -10.002182
-0.000092 70.145845 -10.002229
6.168531 69.161314 -10.002182
11.724820 66.305624 -10.002038
16.117658 61.862481 -10.001823
18.912092 56.272687 -10.001558
18.910801 56.272354 -0.000000
16.116434 61.861620 -0.000000
11.723830 66.304292 0.000000
6.167978 69.159641 0.000000
-6.168166 69.159674 0.000000
-11.724033 66.304355 -0.000000
-16.116661 61.861707 -0.000000
-18.911057 56.272455 -0.000000
28.449319 59.283098 -9.998687
24.247225 67.687342 -9.998449
17.639991 74.369736 -9.998338
9.281075 78.665573 -9.998235
-0.000065 80.146789 -9.998206
-9.281213 78.665624 -9.998234
-17.640151 74.369832 -9.998337
-24.247422 67.687471 -9.998449
-28.449554 59.283243 -9.998690
9.280399 78.663524 -0.000000
17.638780 74.368113 -0.000000
24.245724 67.686275 0.000000
28.447794 59.282634 0.000000
-28.448034 59.282786 0.000000
-24.245920 67.686404 0.000000
-17.638940 74.368207 0.000000
-9.280536 78.663573 -0.000000
-0.000078 75.145629 -0.000000
-28.449554 59.283243 9.998690
-24.247422 67.687471 9.998449
-17.640151 74.369832 9.998337
-9.281213 78.665624 9.998234
-0.000065 80.146790 9.998206
9.281075 78.665575 9.998234
17.639992 74.369740 9.998337
24.247227 67.687342 9.998449
28.449309 59.283084 9.998693
18.912070 56.272702 10.001552
16.117654 61.862488 10.001823
11.724821 66.305626 10.002039
6.168532 69.161315 10.002182
-0.000091 70.145845 10.002229
-6.168719 69.161347 10.002182
-11.725024 66.305688 10.002038
-16.117883 61.862571 10.001823
-18.912337 56.272796 10.001555
24.833293 50.040403 10.000092
-24.833612 50.040536 10.000091
19.768687 44.095362 10.001016
19.699123 38.099714 10.000751
19.625104 32.102962 10.000489
19.547714 26.105376 10.000191
24.467973 20.040470 10.000072
29.547695 25.975366 9.999787
29.625067 31.977721 9.999467
29.699065 37.980958 9.999183
29.768577 43.985190 9.998918
24.400531 15.040312 10.000148
24.400919 15.040345 5.000109
-24.468673 20.040515 10.000020
-19.548363 26.105436 10.000249
-19.625629 32.103041 10.000571
-19.699587 38.099796 10.000800
-19.769073 44.095451 10.001047
-29.768962 43.985364 9.998885
-29.699529 37.981136 9.999129
-29.625592 31.977901 9.999378
-29.548360 25.975543 9.999721
-24.400975 15.040428 5.000032
-24.400787 15.040426 10.000118
-20.434817 17.594175 10.000034
-20.010821 18.697611 3.471506
-28.434738 17.486635 10.000107
-28.889612 18.579973 3.471565
28.889246 18.579793 -3.471509
28.434585 17.486676 -10.000047
20.010447 18.697509 -3.471591
20.434680 17.593940 -10.000101
24.400638 15.040296 -10.000076
24.400768 15.040273 -5.000046
24.333337 10.040278 0.000047
24.333267 10.040173 -10.000039
-20.434817 17.594175 -10.000034
-24.400787 15.040426 -10.000118
-28.434738 17.486635 -10.000107
-20.010821 18.697611 -3.471506
-24.400975 15.040428 -5.000032
-28.889612 18.579973 -3.471565
-19.912826 11.501984 3.471545
-20.367019 12.594436 10.000012
-28.791602 11.382143 3.471527
-28.366948 12.486471 10.000126
-24.333223 10.040352 10.000023
-24.333249 10.040401 -0.000000
-24.198297 0.040412 -0.000000
-24.198297 0.040396 9.999977
24.333343 10.040244 10.000065
24.198867 0.040337 0.000030
24.198850 0.040269 10.000003
19.912878 11.501678 3.471580
20.366988 12.594114 10.000048
28.791654 11.382250 3.471617
28.366912 12.486497 10.000204
24.198881 0.040288 -9.999885
-24.198297 0.040396 -9.999977
-24.333223 10.040352 -10.000023
-20.367019 12.594436 -10.000012
-28.366948 12.486471 -10.000126
-19.912826 11.501984 -3.471545
-28.791602 11.382143 -3.471527
24.548357 26.040348 -10.000004
24.625804 32.040337 -10.000004
24.699884 38.040315 -10.000005
24.769566 44.040275 -10.000032
-24.548584 26.040477 -10.000018
-24.626038 32.040477 -10.000012
-24.700129 38.040451 -10.000007
-24.769823 44.040409 -10.000033
23.680147 57.777776 -0.000000
20.181968 64.774606 -0.000000
14.681989 70.337190 -0.000000
7.724581 73.912811 -0.000000
-7.724743 73.912852 -0.000000
-14.682171 70.337269 0.000000
-20.182179 64.774714 0.000000
-23.680396 57.777902 -0.000000
23.681542 57.778208 -10.000196
20.183340 64.775576 -10.000238
14.683093 70.338677 -10.000297