<VTKFile type="UnstructuredGrid" version="0.1" byte_order="LittleEndian" header_type="UInt32" compressor="vtkZLibDataCompressor">
<UnstructuredGrid><Piece NumberOfPoints="5346" NumberOfCells="4000">
<PointData>
<DataArray Name="S11" type="Float64" format="ASCII">
-1.578422561287879944e-01
2.871255187988281250e+02
-1.563155364990234375e+02
-5.405364558100700378e-02
-1.532417144775390625e+02
-1.092900390625000000e+02
-2.995375096797943115e-01
-4.587003216147422791e-02
-1.563155364990234375e+02
-1.092900390625000000e+02
-2.995375096797943115e-01
-5.405364558100700378e-02
-2.995375096797943115e-01
-5.405364558100700378e-02
-5.405364558100700378e-02
-2.995375096797943115e-01
-6.589087002794258296e-02
-6.742781773209571838e-02
-8.928875625133514404e-02
-1.197448521852493286e-01
-1.619370579719543457e-01
-2.297267913818359375e-01
-3.357487618923187256e-01
-4.922538995742797852e-01
-5.613242387771606445e-01
-6.650259494781494141e-01
-2.642555058002471924e+00
-1.699224567413330078e+01
-2.439540672302246094e+01
-2.620839881896972656e+01
-2.740577793121337891e+01
-3.019908809661865234e+01
-2.769040441513061523e+01
-2.481371498107910156e+01
-4.190731048583984375e+01
-9.337318801879882812e+01
-1.229780162572860718e+02
1.528368759155273438e+01
-1.103701324462890625e+02
-1.068575439453125000e+02
-1.795327033996582031e+02
-1.926020164489746094e+02
-1.820015945434570312e+02
-1.642929420471191406e+02
-1.516918716430664062e+02
-1.274753036499023438e+02
-1.051015243530273438e+02
-7.009441947937011719e+01
-2.971369171142578125e+01
1.662333011627197266e+01
6.592911148071289062e+01
1.225506706237792969e+02
1.802475433349609375e+02
2.330896301269531250e+02
2.733163146972656250e+02
2.758096466064453125e+02
2.432252731323242188e+02
1.539017410278320312e+02
1.116300582885742188e+00
-1.284869766235351562e+02
-5.362366390228271484e+01
1.067381858825683594e+01
7.191009712219238281e+01
1.076393280029296875e+02
1.274397926330566406e+02
1.287153472900390625e+02
1.248646965026855469e+02
1.095926361083984375e+02
1.011869373321533203e+02
8.119716835021972656e+01
6.335986137390136719e+01
4.892447376251220703e+01
3.811589431762695312e+01
2.620986676216125488e+01
1.592240643501281738e+01
-8.539603948593139648e+00
-3.007598114013671875e+01
-3.993539333343505859e+01
-4.686993598937988281e+01
-4.760717964172363281e+01
-5.138042068481445312e+01
-5.611336517333984375e+01
-5.312942886352539062e+01
-4.732123565673828125e+01
-4.090629196166992188e+01
-3.431369781494140625e+01
-1.516742897033691406e+01
2.831200361251831055e-01
-1.887635886669158936e+00
-1.487664699554443359e+00
-1.127491712570190430e+00
-8.276050984859466553e-01
-6.019876301288604736e-01
-4.388732761144638062e-01
-3.222766667604446411e-01
-2.354807257652282715e-01
-1.697804704308509827e-01
-1.198335420340299606e-01
-6.304314360022544861e-03
-4.203229583799839020e-02
-1.026260703802108765e-01
-1.435105502605438232e-01
-1.482139205932617188e+02
-1.351874465942382812e+02
-1.233364715576171875e+02
-1.086825637817382812e+02
-9.629822921752929688e+01
-8.885021209716796875e+01
-8.399269866943359375e+01
-8.929210281372070312e+01
-9.071662521362304688e+01
-7.775738143920898438e+01
-7.277292251586914062e+01
-5.904036903381347656e+01
-4.814035987854003906e+01
-3.626414680480957031e+01
-3.097713088989257812e+01
-1.456881785392761230e+01
4.955245971679687500e+00
9.916124343872070312e+00
1.962081146240234375e+01
3.343326425552368164e+01
3.687717819213867188e+01
3.215929508209228516e+01
3.745550155639648438e+01
4.110909652709960938e+01
3.573008155822753906e+01
3.320504760742187500e+01
3.127106952667236328e+01
2.317306041717529297e+01
6.753376722335815430e+00
1.897619664669036865e+00
1.191845744848251343e+00
9.400598406791687012e-01
6.176913529634475708e-01
4.276061356067657471e-01
2.877658456563949585e-01
1.748952744528651237e-01
1.054346151649951935e-01
5.226233601570129395e-02
-7.450760900974273682e-02
-9.114887237548828125e+01
-9.876574325561523438e+01
-1.221514358520507812e+02
-1.445076980590820312e+02
-2.095604538917541504e-01
-1.311940848827362061e-01
-1.711853891611099243e-01
-2.099212855100631714e-01
-2.389768958091735840e-01
-3.256185352802276611e-01
-5.098948776721954346e-01
-7.634728848934173584e-01
-1.174799680709838867e+00
-1.907576441764831543e+00
-4.938247203826904297e+00
1.199206447601318359e+01
3.743493556976318359e+01
4.278015708923339844e+01
4.423651885986328125e+01
4.765111160278320312e+01
4.510493659973144531e+01
4.108430099487304688e+01
3.934634971618652344e+01
4.251039886474609375e+01
4.613394927978515625e+01
4.096109771728515625e+01
2.264338028430938721e+01
9.618027389049530029e+00
2.391281127929687500e+00
-3.563852548599243164e+00
-5.865202665328979492e+00
-9.987938284873962402e+00
-7.772277593612670898e+00
-9.612820982933044434e+00
-2.313778126239776611e+01
-3.656969261169433594e+01
-4.633111190795898438e+01
-5.451317024230957031e+01
-5.886992263793945312e+01
-7.062687873840332031e+01
-8.035887145996093750e+01
-9.355905532836914062e+01
-1.043076057434082031e+02
-6.437485292553901672e-02
-1.185429170727729797e-01
-2.033291906118392944e-01
-2.857300788164138794e-01
-1.928074937313795090e-02
-8.543466404080390930e-02
-3.506913781166076660e-04
3.534883260726928711e-02
1.290998989716172218e-01
9.756203461438417435e-02
-2.839700179174542427e-02
-2.021711692214012146e-02
-4.149014377593994141e+01
4.910995292663574219e+01
1.836139221191406250e+02
3.106536102294921875e+01
-6.802589464187622070e+01
-2.325605239868164062e+02
1.598225898742675781e+02
-3.932376134395599365e+01
3.106536102294921875e+01
1.836139221191406250e+02
4.910995292663574219e+01
-4.149014377593994141e+01
-1.043076057434082031e+02
-9.355905532836914062e+01
-8.035887145996093750e+01
-7.062687873840332031e+01
-5.886992263793945312e+01
-5.451317024230957031e+01
-4.633111190795898438e+01
-3.656969261169433594e+01
-2.313778126239776611e+01
-9.612820982933044434e+00
-7.772277593612670898e+00
-9.987938284873962402e+00
-5.865202665328979492e+00
-3.563852548599243164e+00
2.391281127929687500e+00
9.618027389049530029e+00
2.264338028430938721e+01
4.096109771728515625e+01
4.613394927978515625e+01
4.251039886474609375e+01
3.934634971618652344e+01
4.108430099487304688e+01
4.510493659973144531e+01
4.765111160278320312e+01
4.423651885986328125e+01
4.278015708923339844e+01
3.743493556976318359e+01
1.199206447601318359e+01
-4.938247203826904297e+00
-1.907576441764831543e+00
-1.174799680709838867e+00
-7.634728848934173584e-01
-5.098948776721954346e-01
-3.256185352802276611e-01
-2.389768958091735840e-01
-2.099212855100631714e-01
-1.711853891611099243e-01
-1.311940848827362061e-01
-2.095604538917541504e-01
3.534883260726928711e-02
-3.506913781166076660e-04
-8.543466404080390930e-02
-1.928074937313795090e-02
-1.198335420340299606e-01
-1.697804704308509827e-01
-2.354807257652282715e-01
-3.222766667604446411e-01
-4.388732910156250000e-01
-6.019876301288604736e-01
-8.276050984859466553e-01
-1.127491712570190430e+00
-1.487664699554443359e+00
-1.887635886669158936e+00
2.831200361251831055e-01
-1.516742897033691406e+01
-3.431369781494140625e+01
-4.090629196166992188e+01
-4.732123565673828125e+01
-5.312942886352539062e+01
-5.611336517333984375e+01
-5.138042068481445312e+01
-4.760717964172363281e+01
-4.686993598937988281e+01
-3.993539333343505859e+01
-3.007598114013671875e+01
-8.539603948593139648e+00
1.592240643501281738e+01
2.620986676216125488e+01
3.811589431762695312e+01
4.892447376251220703e+01
6.335986137390136719e+01
8.119716835021972656e+01
1.011869373321533203e+02
1.095926361083984375e+02
1.248646965026855469e+02
1.287153472900390625e+02
1.274397926330566406e+02
1.076393280029296875e+02
7.191009712219238281e+01
1.067381858825683594e+01
-5.362366390228271484e+01
-1.284869766235351562e+02
-2.095604464411735535e-01
-1.311940848827362061e-01
-1.711853891611099243e-01
-2.099212855100631714e-01
-2.389768958091735840e-01
-3.256185352802276611e-01
-5.098948776721954346e-01
-7.634728848934173584e-01
-1.174799680709838867e+00
-1.907576441764831543e+00
-4.938247203826904297e+00
1.199206447601318359e+01
3.743493556976318359e+01
4.278015708923339844e+01
4.423651885986328125e+01
4.765111160278320312e+01
4.510493659973144531e+01
4.108430099487304688e+01
3.934634971618652344e+01
4.251039886474609375e+01
4.613394927978515625e+01
4.096109771728515625e+01
2.264338028430938721e+01
9.618027389049530029e+00
2.391281127929687500e+00
-3.563852548599243164e+00
-5.865202665328979492e+00
-9.987938284873962402e+00
-7.772277593612670898e+00
-9.612820982933044434e+00
-2.313778126239776611e+01
-3.656969261169433594e+01
-4.633111190795898438e+01
-5.451317024230957031e+01
-5.886992263793945312e+01
-7.062687873840332031e+01
-8.035887145996093750e+01
-9.355905532836914062e+01
-1.043076057434082031e+02
-1.928074937313795090e-02
-8.543466404080390930e-02
-3.506913781166076660e-04
3.534883260726928711e-02
-1.284869766235351562e+02
-5.362366390228271484e+01
1.067381858825683594e+01
7.191009712219238281e+01
1.076393280029296875e+02
1.274397926330566406e+02
1.287153472900390625e+02
1.248646965026855469e+02
1.095926361083984375e+02
1.011869373321533203e+02
8.119716835021972656e+01
6.335986137390136719e+01
4.892447376251220703e+01
3.811589431762695312e+01
2.620986676216125488e+01
1.592240643501281738e+01
-8.539603948593139648e+00
-3.007598114013671875e+01
-3.993539333343505859e+01
-4.686993598937988281e+01
-4.760717964172363281e+01
-5.138042068481445312e+01
-5.611336517333984375e+01
-5.312942886352539062e+01
-4.732123565673828125e+01
-4.090629196166992188e+01
-3.431369781494140625e+01
-1.516742897033691406e+01
2.831200361251831055e-01
-1.887635886669158936e+00
-1.487664699554443359e+00
-1.127491712570190430e+00
-8.276050984859466553e-01
-6.019876301288604736e-01
-4.388732910156250000e-01
-3.222766667604446411e-01
-2.354807257652282715e-01
-1.697804704308509827e-01
-1.198335420340299606e-01
-6.304314360022544861e-03
-4.203229770064353943e-02
-1.026260703802108765e-01
-1.435105428099632263e-01
-1.578422486782073975e-01
-1.435105428099632263e-01
-1.026260703802108765e-01
-4.203229770064353943e-02
-6.304314360022544861e-03
2.758096466064453125e+02
2.432252731323242188e+02
1.539017410278320312e+02
1.116300582885742188e+00
-2.857300788164138794e-01
-2.033291906118392944e-01
-1.185429133474826813e-01
-6.437485292553901672e-02
-4.587003216147422791e-02
-6.437485665082931519e-02
-1.185429058969020844e-01
-2.033291906118392944e-01
-2.857300788164138794e-01
-9.114887237548828125e+01
-9.876574325561523438e+01
-1.221514358520507812e+02
-1.445076980590820312e+02
-1.284869766235351562e+02
-5.362366390228271484e+01
1.067381858825683594e+01
7.191009712219238281e+01
1.076393280029296875e+02
1.274397926330566406e+02
1.287153472900390625e+02
1.248646965026855469e+02
1.095926361083984375e+02
1.011869373321533203e+02
8.119716835021972656e+01
6.335986137390136719e+01
4.892447376251220703e+01
3.811589431762695312e+01
2.620986676216125488e+01
1.592240643501281738e+01
-8.539603948593139648e+00
-3.007598114013671875e+01
-3.993539333343505859e+01
-4.686993598937988281e+01
-4.760717964172363281e+01
-5.138042068481445312e+01
-5.611336517333984375e+01
-5.312942886352539062e+01
-4.732123565673828125e+01
-4.090629196166992188e+01
-3.431369781494140625e+01
-1.516742897033691406e+01
2.831200361251831055e-01
-1.887635886669158936e+00
-1.487664699554443359e+00
-1.127491712570190430e+00
-8.276050984859466553e-01
-6.019876301288604736e-01
-4.388732910156250000e-01
-3.222766667604446411e-01
-2.354807257652282715e-01
-1.697804704308509827e-01
-1.198335420340299606e-01
-1.928074937313795090e-02
-8.543466404080390930e-02
-3.506913781166076660e-04
3.534883260726928711e-02
-2.095604538917541504e-01
-1.311940848827362061e-01
-1.711853891611099243e-01
-2.099212855100631714e-01
-2.389768958091735840e-01
-3.256185352802276611e-01
-5.098948776721954346e-01
-7.634728848934173584e-01
-1.174799680709838867e+00
-1.907576441764831543e+00
-4.938247203826904297e+00
1.199206447601318359e+01
3.743493556976318359e+01
4.278015708923339844e+01
4.423651885986328125e+01
4.765111160278320312e+01
4.510493659973144531e+01
4.108430099487304688e+01
3.934634971618652344e+01
4.251039886474609375e+01
4.613394927978515625e+01
4.096109771728515625e+01
2.264338028430938721e+01
9.618027389049530029e+00
2.391281127929687500e+00
-3.563852548599243164e+00
-5.865202665328979492e+00
-9.987938284873962402e+00
-7.772277593612670898e+00
-9.612820982933044434e+00
-2.313778126239776611e+01
-3.656969261169433594e+01
-4.633111190795898438e+01
-5.451317024230957031e+01
-5.886992263793945312e+01
-7.062687873840332031e+01
-8.035887145996093750e+01
-9.355905532836914062e+01
-1.043076057434082031e+02
-2.857300788164138794e-01
-2.033291906118392944e-01
-1.185429133474826813e-01
-6.437485292553901672e-02
-1.435105428099632263e-01
-1.026260703802108765e-01
-4.203229770064353943e-02
-6.304314360022544861e-03
-6.290844990871846676e-02
-6.577042862772941589e-02
-8.833018690347671509e-02
-1.195356473326683044e-01
-1.618712544441223145e-01
-2.288689613342285156e-01
-3.331813961267471313e-01
-4.860712885856628418e-01
-5.672064125537872314e-01
-6.462879180908203125e-01
-2.285658687353134155e+00
-1.599699783325195312e+01
-2.466018629074096680e+01
-2.626746273040771484e+01
-2.728887844085693359e+01
-3.029962396621704102e+01
-2.915049695968627930e+01
-2.768751525878906250e+01
-4.052966690063476562e+01
-8.369232749938964844e+01
-1.266277465820312500e+02
-1.499180221557617188e+01
-1.051573219299316406e+02
-1.001181030273437500e+02
-1.685282802581787109e+02
-1.794337425231933594e+02
-1.752886295318603516e+02
-1.524369106292724609e+02
-1.368931598663330078e+02
-1.120730762481689453e+02
-8.865959930419921875e+01
-5.469992733001708984e+01
-1.396552324295043945e+01
3.102678728103637695e+01
7.803837013244628906e+01
1.299161357879638672e+02
1.801435928344726562e+02
2.256367835998535156e+02
2.641618957519531250e+02
-5.340302351396530867e-02
-5.915690120309591293e-02
-8.364823274314403534e-02
-1.159023568034172058e-01
-1.571649461984634399e-01
-2.196716517210006714e-01
-3.169483840465545654e-01
-4.550855457782745361e-01
-5.570714771747589111e-01
-5.644387304782867432e-01
-1.066417679190635681e+00
-1.312917494773864746e+01
-2.487863826751708984e+01
-2.636551952362060547e+01
-2.668971109390258789e+01
-3.044764733314514160e+01
-3.194239783287048340e+01
-3.237702775001525879e+01
-4.342916631698608398e+01
-5.503470277786254883e+01
-9.967947673797607422e+01
-1.142049660682678223e+02
-7.843270158767700195e+01
-9.420972824096679688e+01
-1.460405473709106445e+02
-1.482522306442260742e+02
-1.358062858581542969e+02
-1.107351741790771484e+02
-9.304564094543457031e+01
-6.664259147644042969e+01
-4.156042289733886719e+01
-1.147449040412902832e+01
2.745182847976684570e+01
6.382174110412597656e+01
1.023586120605468750e+02
1.411954231262207031e+02
1.736195678710937500e+02
2.020845756530761719e+02
2.263044013977050781e+02
-4.053334519267082214e-02
-5.666770017705857754e-02
-8.551278221420943737e-02
-1.205491148866713047e-01
-1.632002973929047585e-01
-2.246414734981954098e-01
-3.202613005414605141e-01
-4.499474056065082550e-01
-6.038850359618663788e-01
-5.445696501992642879e-01
-1.525707244873046875e-01
-8.756759807467460632e+00
-2.348818445205688477e+01
-2.644796514511108398e+01
-2.617803144454956055e+01
-2.950899410247802734e+01
-3.381293869018554688e+01
-3.630879306793212891e+01
-4.428013896942138672e+01
-5.103432559967041016e+01
-7.506968402862548828e+01
-8.831951427459716797e+01
-7.033314609527587891e+01
-7.928646135330200195e+01
-9.006460332870483398e+01
-7.573299837112426758e+01
-5.500394761562347412e+01
-3.355103445053100586e+01
-1.493106079101562500e+01
9.007071495056152344e+00
3.115981435775756836e+01
5.558129692077636719e+01
8.281405830383300781e+01
1.042639408111572266e+02
1.243606338500976562e+02
1.370633907318115234e+02
1.448832893371582031e+02
1.499575881958007812e+02
1.500305385589599609e+02
-5.736644286662340164e-02
-9.662760711216833442e-02
-1.379724796861410141e-01
-1.905621290206909180e-01
-2.587040774524211884e-01
-3.572986945509910583e-01
-5.028495043516159058e-01
-7.142443470656871796e-01
-9.930229708552360535e-01
-1.259418144822120667e+00
-1.327184638008475304e+00
-5.758203476667404175e+00
-2.348204946517944336e+01
-2.848031044006347656e+01
-3.159576034545898438e+01
-3.648595571517944336e+01
-4.112782955169677734e+01
-4.203832101821899414e+01
-4.528547811508178711e+01
-5.218169975280761719e+01
-6.019557189941406250e+01
-6.941566324234008789e+01
-6.097583580017089844e+01
-4.480911588668823242e+01
-4.668622124195098877e+01
-3.329365170001983643e+01
-1.515427589416503906e+01
2.685333251953125000e+00
2.028316020965576172e+01
3.966467189788818359e+01
5.314772367477416992e+01
7.146269321441650391e+01
8.220446944236755371e+01
8.705085146427154541e+01
7.974311637878417969e+01
6.859811210632324219e+01
4.931874752044677734e+01
2.643042159080505371e+01
9.288913726806640625e+00
-8.241326734423637390e-02
4.339905967935919762e-02
9.315302595496177673e-02
1.581881133606657386e-01
2.645193487405776978e-01
3.940496519207954407e-01
5.664393007755279541e-01
8.678560256958007812e-01
1.099552974104881287e+00
1.731641083955764771e+00
6.129445552825927734e+00
2.267005968093872070e+01
3.132534742355346680e+01
3.344772195816040039e+01
3.569461679458618164e+01
4.105360555648803711e+01
3.809281587600708008e+01
3.282195186614990234e+01
3.686812925338745117e+01
3.320100331306457520e+01
1.945123767852783203e+01
8.706098556518554688e+00
2.578181266784667969e+00
-1.660812163352966309e+01
-3.296437573432922363e+01
-3.846271705627441406e+01
-5.023026466369628906e+01
-6.107103633880615234e+01
-7.472370243072509766e+01
-8.020219993591308594e+01
-9.404192352294921875e+01
-9.370812988281250000e+01
-9.067465400695800781e+01
-9.554037666320800781e+01
-1.020496673583984375e+02
-1.123977775573730469e+02
-1.230360870361328125e+02
-1.312223377227783203e+02
-1.407861061096191406e+02
-1.071994975209236145e-01
1.479530427604913712e-02
5.416862852871417999e-02
1.046220462303608656e-01
1.904515265487134457e-01
2.866206429898738861e-01
4.058116227388381958e-01
6.287406645715236664e-01
8.038210123777389526e-01
1.217682942748069763e+00
4.130006253719329834e+00
1.990288543701171875e+01
3.147024202346801758e+01
3.377414846420288086e+01
3.518594884872436523e+01
4.031586694717407227e+01
3.866646909713745117e+01
3.421774339675903320e+01
3.691938543319702148e+01
3.308175110816955566e+01
1.938252639770507812e+01
5.001421928405761719e+00
-6.071430921554565430e+00
-2.386818659305572510e+01
-4.010952043533325195e+01
-4.649546384811401367e+01
-5.743044948577880859e+01
-6.788982009887695312e+01
-7.995706939697265625e+01
-8.635525989532470703e+01
-1.004897613525390625e+02
-1.053990135192871094e+02
-1.057249393463134766e+02
-1.103113079071044922e+02
-1.139289226531982422e+02
-1.190607166290283203e+02
-1.206204719543457031e+02
-1.207184009552001953e+02
-1.216624946594238281e+02
-1.483693644404411316e-01
-2.690382720902562141e-02
-3.391998820006847382e-03
2.504866779781877995e-02
8.126757852733135223e-02
1.277894088998436928e-01
1.707836315035820007e-01
2.654055133461952209e-01
3.644317770376801491e-01
3.690154366195201874e-01
7.045351266860961914e-01
1.400184249877929688e+01
2.970469903945922852e+01
3.345393610000610352e+01
3.359233760833740234e+01
3.769368886947631836e+01
3.800875186920166016e+01
3.654091072082519531e+01
3.754356956481933594e+01
3.305284714698791504e+01
1.967313399910926819e+01
1.400613784790039062e-01
-1.789691257476806641e+01
-3.341249930858612061e+01
-4.696298551559448242e+01
-5.670964145660400391e+01
-6.346133232116699219e+01
-7.339377117156982422e+01
-8.009222602844238281e+01
-8.939163970947265625e+01
-1.017791175842285156e+02
-1.129148483276367188e+02
-1.157365951538085938e+02
-1.198559780120849609e+02
-1.195380325317382812e+02
-1.189268970489501953e+02
-1.135143375396728516e+02
-1.061901626586914062e+02
-1.010420150756835938e+02
-1.808968074619770050e-01
-4.883433878421783447e-02
-3.962773270905017853e-02
-2.280267979949712753e-02
1.624315232038497925e-02
3.489348292350769043e-02
2.874075621366500854e-02
4.315291345119476318e-02
7.459054887294769287e-02
-6.855639815330505371e-02
-3.061132729053497314e-01
7.776193678379058838e+00
2.619237518310546875e+01
3.500250768661499023e+01
3.690970897674560547e+01
4.041495037078857422e+01
4.140593528747558594e+01
3.916212320327758789e+01
3.706377053260803223e+01
3.234405624866485596e+01
2.393122845888137817e+01
1.017463731765747070e+01
-8.498650997877120972e+00
-2.089342522621154785e+01
-2.891311550140380859e+01
-4.019937610626220703e+01
-4.431579589843750000e+01
-5.308846378326416016e+01
-5.395115709304809570e+01
-6.341484785079956055e+01
-7.432214546203613281e+01
-8.945946979522705078e+01
-9.472455406188964844e+01
-9.985945510864257812e+01
-9.947214508056640625e+01
-9.874711418151855469e+01
-9.512605476379394531e+01
-9.314908599853515625e+01
-9.163954353332519531e+01
-1.678378507494926453e-02
-5.578052718192338943e-03
2.360257750842720270e-02
4.734852875117212534e-02
-2.718134899623692036e-02
-2.151969925034791231e-02
-2.359394915401935577e-03
-1.460834406316280365e-03
9.283235971815884113e-02
7.721792644588276744e-02
4.332681000232696533e-02
1.735160872340202332e-02
1.239015250466763973e-01
1.082307007163763046e-01
7.279061153531074524e-02
3.068527579307556152e-02
-7.824180769920349121e+01
-1.068745040893554688e+02
-1.587658386230468750e+02
-2.509904060363769531e+02
-2.096296463012695312e+02
-1.285678653717041016e+02
9.605876922607421875e+00
2.669824066162109375e+02
1.606591777801513672e+02
1.502568454742431641e+02
1.237287654876708984e+02
9.012074756622314453e+01
-3.428253537416458130e+01
-2.201167798042297363e+01
-1.132493638992309570e+01
-1.435886690020561218e+01
7.767004100605845451e-02
8.321771537885069847e-02
1.042201835662126541e-01
1.508167376741766930e-01
2.206356339156627655e-01
3.163939155638217926e-01
4.371792078018188477e-01
5.949789807200431824e-01
1.040695436298847198e+00
2.863068237900733948e+00
6.876813381910324097e+00
1.383292564749717712e+01
1.527389621734619141e+01
1.195448297262191772e+01
3.158899068832397461e+00
6.438126564025878906e-01
8.790122270584106445e+00
7.158134937286376953e+00
-3.712541484832763672e+01
7.992735862731933594e+00
5.265879011154174805e+01
-1.756939631700515747e+01
1.119649505615234375e+01
-2.745043754577636719e+01
-3.445307159423828125e+01
-6.471503448486328125e+01
-8.667495250701904297e+01
-1.071993336677551270e+02
-1.267857878208160400e+02
-1.334734555482864380e+02
-1.353909177780151367e+02
-1.325561189651489258e+02
-1.238598451614379883e+02
-1.148610625267028809e+02
-1.000699715614318848e+02
-8.551553368568420410e+01
-7.289240181446075439e+01
-6.711176896095275879e+01
-6.647441983222961426e+01
1.000578422099351883e-01
1.011895074043422937e-01
1.301917489618062973e-01
2.007019519805908203e-01
3.009364455938339233e-01
4.330249466001987457e-01
6.000980995595455170e-01
8.048914484679698944e-01
1.251313872635364532e+00
2.455406546592712402e+00
3.821259528398513794e+00
4.773182183504104614e+00
3.881221175193786621e+00
6.128623127937316895e+00
1.551945367455482483e+01
2.624827730655670166e+01
3.822958970069885254e+01
6.330270385742187500e+01
-3.295111560821533203e+01
4.729693794250488281e+01
5.317620182037353516e+01
-3.634297132492065430e+01
-9.819809579849243164e+01
4.219141244888305664e+00
1.993105030059814453e+01
1.020272016525268555e+00
-4.047873497009277344e+00
-8.816143035888671875e+00
-3.993328714370727539e+01
-7.428254890441894531e+01
-1.072705049514770508e+02
-1.326488189697265625e+02
-1.551529884338378906e+02
-1.697657546997070312e+02
-1.803320884704589844e+02
-1.903992443084716797e+02
-2.039508357048034668e+02
-2.171147890090942383e+02
-2.273841762542724609e+02
1.048897383734583855e-01
6.808839179575443268e-02
1.198183028027415276e-01
1.965501699596643448e-01
2.979898215271532536e-01
4.306841399520635605e-01
6.074655298143625259e-01
8.281256668269634247e-01
8.321628123521804810e-01
1.610267460346221924e-01
-3.309802412986755371e-01
1.732329130172729492e-01
1.588087201118469238e+00
-7.343156933784484863e-01
-1.136534452438354492e+01
-2.686886620521545410e+01
-4.048533320426940918e+01
-8.080431365966796875e+01
-2.646533679962158203e+01
6.219116926193237305e+00
5.409033203125000000e+01
3.545118379592895508e+01
-1.207811975479125977e+01
-4.392071509361267090e+01
-4.964113187789916992e+01
-5.025255203247070312e+01
-3.535888195037841797e+01
-1.459033608436584473e+01
6.169481277465820312e+00
1.379703569412231445e+01
1.899868011474609375e+01
3.012272942066192627e+01
5.446089744567871094e+01
8.100658547878265381e+01
1.054431240558624268e+02
1.230145354270935059e+02
1.387266559600830078e+02
1.506570177078247070e+02
1.575355615615844727e+02
2.162982913432642817e-02
2.367631252855062485e-02
8.959166612476110458e-02
1.362006813287734985e-01
1.962317638099193573e-01
2.814997881650924683e-01
4.028422236442565918e-01
5.545855611562728882e-01
5.083600580692291260e-01
-9.212309122085571289e-01
-3.860636651515960693e+00
-9.182399183511734009e+00
-1.012684005498886108e+01
-7.419449076056480408e+00
3.496038436889648438e+00
9.175623416900634766e+00
3.693071365356445312e+00
2.035582542419433594e+00
1.255955123901367188e+01
1.796175742149353027e+01
1.417377734184265137e+01
9.153954148292541504e+00
-8.031891822814941406e+00
-2.023878026008605957e+01
-2.876289510726928711e+01
-2.516922283172607422e+01
-3.061552524566650391e+01
-2.903658676147460938e+01
-3.250530147552490234e+01
-2.707242250442504883e+01
-2.996753954887390137e+01
-2.484738141298294067e+01
-2.080721676349639893e+01
-1.721356415748596191e+01
-1.961625313758850098e+01
-2.135179519653320312e+01
-2.604734230041503906e+01
-3.222125864028930664e+01
-3.729874658584594727e+01
-8.109334483742713928e-02
-1.192289516329765320e-01
-1.678211553953588009e-01
-2.437863708473742008e-01
-3.482411159202456474e-01
-4.984387401491403580e-01
-7.141593545675277710e-01
-1.026009403169155121e+00
-1.417456425726413727e+00
-1.445383146405220032e+00
2.527605891227722168e-01
6.504997849464416504e+00
1.255431115627288818e+01
7.133911013603210449e+00
-7.490927219390869141e+00
-1.840294599533081055e+01
-3.440365934371948242e+01
-3.658186793327331543e+01
-2.822390985488891602e+01
-5.488576889038085938e-01
2.300416898727416992e+01
5.415668368339538574e+01
9.096018886566162109e+01
1.119935503005981445e+02
1.152829771041870117e+02
1.262398586273193359e+02
1.353728752136230469e+02
1.472420959472656250e+02
1.540016937255859375e+02
1.583840103149414062e+02
1.571805343627929688e+02
1.589480094909667969e+02
1.517460479736328125e+02
1.395926284790039062e+02
1.164740619659423828e+02
8.325193452835083008e+01
2.577069187164306641e+01
-3.014319610595703125e+01
9.745590209960937500e+00
-9.451668895781040192e-02
-2.155788838863372803e-01
-3.148703388869762421e-01
-4.375274628400802612e-01
-6.179815307259559631e-01
-8.866260796785354614e-01
-1.288736820220947266e+00
-1.880197346210479736e+00
-2.696142137050628662e+00
-3.442467451095581055e+00
-3.894451498985290527e+00
-5.489441990852355957e+00
-8.408314943313598633e+00
-1.009573936462402344e+01
-1.260453391075134277e+01
-2.807782548666000366e+01
-3.392490530014038086e+01
-4.318884271383285522e+01
-4.695449185371398926e+01
2.879624271392822266e+01
1.017192435264587402e+01
9.338579750061035156e+01
1.252880744934082031e+02
1.326869411468505859e+02
1.314046573638916016e+02
1.397185230255126953e+02
1.469519481658935547e+02
1.461953773498535156e+02
1.441890335083007812e+02
1.418323287963867188e+02
1.417835369110107422e+02
1.398791656494140625e+02
1.401032218933105469e+02
1.512887439727783203e+02
1.551842174530029297e+02
2.010664958953857422e+02
2.328718681335449219e+02
2.261737289428710938e+02
1.976543140411376953e+02
1.567913591861724854e-02
-1.701204199343919754e-01
-2.656674440950155258e-01
-3.738022930920124054e-01
-5.274861752986907959e-01
-7.623022943735122681e-01
-1.117997214198112488e+00
-1.644060805439949036e+00
-2.455333232879638672e+00
-4.083477020263671875e+00
-6.929328083992004395e+00
-1.000607562065124512e+01
-1.299248063564300537e+01
-2.023070573806762695e+01
-4.235011196136474609e+01
-3.510860501974821091e+01
-4.145006024837493896e+01
-3.291779565811157227e+01
4.473967075347900391e+00
2.319966387748718262e+01
7.988514995574951172e+01
9.825134086608886719e+01
1.160572814941406250e+02
1.281890640258789062e+02
1.389262428283691406e+02
1.547066612243652344e+02
1.661450004577636719e+02
1.692810173034667969e+02
1.720247344970703125e+02
1.747936210632324219e+02
1.773676414489746094e+02
1.780356826782226562e+02
1.801753768920898438e+02
1.765822067260742188e+02
1.648261451721191406e+02
1.453127880096435547e+02
1.132427244186401367e+02
8.190162849426269531e+01
5.870691299438476562e+01
2.122057601809501648e-03
-1.306115882471203804e-01
-1.920831762254238129e-01
-2.953282035887241364e-01
-4.417765438556671143e-01
-6.513227745890617371e-01
-9.627767205238342285e-01
-1.426850780844688416e+00
-2.161113470792770386e+00
-3.699583947658538818e+00
-7.733407557010650635e+00
-1.665888142585754395e+01
-2.887642526626586914e+01
-2.635000705718994141e+01
-7.603686332702636719e+00
2.079841613769531250e+00
1.553287887573242188e+01
1.721182060241699219e+01
1.401910352706909180e+01
2.251218986511230469e+01
4.089473593235015869e+01
5.538091611862182617e+01
5.930006766319274902e+01
6.264665508270263672e+01
6.838486003875732422e+01
7.890598392486572266e+01
8.772937393188476562e+01
9.655725288391113281e+01
1.040107059478759766e+02
1.076145172119140625e+02
1.037405357360839844e+02
9.610932064056396484e+01
8.643632650375366211e+01
7.174256753921508789e+01
5.559121453762054443e+01
3.283407640457153320e+01
7.291239976882934570e+00
-1.454875719547271729e+01
-3.362157058715820312e+01
9.745590209960937500e+00
1.976543140411376953e+02
5.870691299438476562e+01
-3.362157058715820312e+01
-3.014319610595703125e+01
2.261737289428710938e+02
8.190162849426269531e+01
-1.454875719547271729e+01
2.577069187164306641e+01
2.328718681335449219e+02
1.132427244186401367e+02
7.291239976882934570e+00
8.325193452835083008e+01
2.010664958953857422e+02
1.453127880096435547e+02
3.283407640457153320e+01
1.164740619659423828e+02
1.551842174530029297e+02