    1C
    1UUSER                                                              
    1UDATE              07.april.2021                                   
    1UTIME              18:15:27                                        
    1UHOST                                                              
    1UPGM               CalculiX                                        
    1UVERSION           Version 2.13                             
    1UCOMPILETIME       Tue, Oct 10, 2017  8:02:00 PM                    
    1UDIR                                                               
    1UDBN                                                               
    1UMAT    1S355                                                      
    2C                           285                                     1
 -1         1 2.00000E+01 2.00000E+01 0.00000E+00
 -1         2 3.00000E+01 2.00000E+01 0.00000E+00
 -1         3 2.60000E+01 2.50000E+01 0.00000E+00
 -1         4 3.00000E+01 2.50000E+01 0.00000E+00
 -1         5 2.00000E+01 2.50000E+01 0.00000E+00
 -1         6 2.60000E+01 4.50000E+01 0.00000E+00
 -1         7 2.00000E+01 4.50000E+01 0.00000E+00
 -1         8 3.00000E+01 4.50000E+01 0.00000E+00
 -1         9 3.00000E+01 5.00000E+01 0.00000E+00
 -1        10 2.00000E+01 5.00000E+01 0.00000E+00
 -1        11 3.00000E+01 2.00000E+01-1.00000E+01
 -1        12 3.00000E+01 5.00000E+01-1.00000E+01
 -1        13 2.00000E+01 5.00000E+01-1.00000E+01
 -1        14 2.00000E+01 2.00000E+01-1.00000E+01
 -1        15-2.00000E+01 2.00000E+01-1.00000E+01
 -1        16-3.00000E+01 2.00000E+01-1.00000E+01
 -1        17-3.00000E+01 2.00000E+01 0.00000E+00
 -1        18-2.00000E+01 2.00000E+01 0.00000E+00
 -1        19-2.00000E+01 5.00000E+01-1.00000E+01
 -1        20-3.00000E+01 5.00000E+01-1.00000E+01
 -1        21-3.00000E+01 5.00000E+01 0.00000E+00
 -1        22-2.00000E+01 5.00000E+01 0.00000E+00
 -1        23-2.00000E+01 2.50000E+01 0.00000E+00
 -1        24-2.00000E+01 4.50000E+01 0.00000E+00
 -1        25-3.00000E+01 2.50000E+01 0.00000E+00
 -1        26-3.00000E+01 4.50000E+01 0.00000E+00
 -1        27-2.60000E+01 2.50000E+01 0.00000E+00
 -1        28-2.60000E+01 4.50000E+01 0.00000E+00
 -1        29 0.00000E+00 7.00000E+01 0.00000E+00
 -1        30 0.00000E+00 8.00000E+01 0.00000E+00
 -1        31-3.00000E+01 5.00000E+01 1.00000E+01
 -1        32 3.00000E+01 5.00000E+01 1.00000E+01
 -1        33-2.00000E+01 5.00000E+01 1.00000E+01
 -1        34 2.00000E+01 5.00000E+01 1.00000E+01
 -1        35 2.00000E+01 2.00000E+01 1.00000E+01
 -1        36 3.00000E+01 2.00000E+01 1.00000E+01
 -1        37 2.20000E+01 1.50000E+01 1.00000E+01
 -1        38 2.80000E+01 1.50000E+01 1.00000E+01
 -1        39 2.80000E+01 1.50000E+01 5.00000E+00
 -1        40 2.20000E+01 1.50000E+01 5.00000E+00
 -1        41-3.00000E+01 2.00000E+01 1.00000E+01
 -1        42-2.00000E+01 2.00000E+01 1.00000E+01
 -1        43-2.20000E+01 1.50000E+01 5.00000E+00
 -1        44-2.80000E+01 1.50000E+01 5.00000E+00
 -1        45-2.80000E+01 1.50000E+01 1.00000E+01
 -1        46-2.20000E+01 1.50000E+01 1.00000E+01
 -1        47 2.80000E+01 1.50000E+01-5.00000E+00
 -1        48 2.80000E+01 1.50000E+01-1.00000E+01
 -1        49 2.20000E+01 1.50000E+01-5.00000E+00
 -1        50 2.20000E+01 1.50000E+01-1.00000E+01
 -1        51 2.00000E+01 1.00000E+01 0.00000E+00
 -1        52 3.00000E+01 1.00000E+01 0.00000E+00
 -1        53 3.00000E+01 1.00000E+01-1.00000E+01
 -1        54 2.00000E+01 1.00000E+01-1.00000E+01
 -1        55-2.20000E+01 1.50000E+01-1.00000E+01
 -1        56-2.80000E+01 1.50000E+01-1.00000E+01
 -1        57-2.20000E+01 1.50000E+01-5.00000E+00
 -1        58-2.80000E+01 1.50000E+01-5.00000E+00
 -1        59-2.00000E+01 1.00000E+01 1.00000E+01
 -1        60-2.00000E+01 1.00000E+01 0.00000E+00
 -1        61-3.00000E+01 1.00000E+01 0.00000E+00
 -1        62-3.00000E+01 1.00000E+01 1.00000E+01
 -1        63-3.00000E+01 0.00000E+00 0.00000E+00
 -1        64-3.00000E+01 0.00000E+00 1.00000E+01
 -1        65-2.00000E+01 0.00000E+00 1.00000E+01
 -1        66-2.00000E+01 0.00000E+00 0.00000E+00
 -1        67 2.00000E+01 1.00000E+01 1.00000E+01
 -1        68 3.00000E+01 1.00000E+01 1.00000E+01
 -1        69 2.00000E+01 0.00000E+00 0.00000E+00
 -1        70 2.00000E+01 0.00000E+00 1.00000E+01
 -1        71 3.00000E+01 0.00000E+00 1.00000E+01
 -1        72 3.00000E+01 0.00000E+00 0.00000E+00
 -1        73 3.00000E+01 0.00000E+00-1.00000E+01
 -1        74 2.00000E+01 0.00000E+00-1.00000E+01
 -1        75-2.00000E+01 0.00000E+00-1.00000E+01
 -1        76-2.00000E+01 1.00000E+01-1.00000E+01
 -1        77-3.00000E+01 1.00000E+01-1.00000E+01
 -1        78-3.00000E+01 0.00000E+00-1.00000E+01
 -1        79 2.50000E+01 2.00000E+01 0.00000E+00
 -1        80 2.60000E+01 3.16667E+01 0.00000E+00
 -1        81 2.60000E+01 3.83333E+01 0.00000E+00
 -1        82 2.00000E+01 3.83333E+01 0.00000E+00
 -1        83 2.00000E+01 3.16667E+01 0.00000E+00
 -1        84 3.00000E+01 3.16667E+01 0.00000E+00
 -1        85 3.00000E+01 3.83333E+01 0.00000E+00
 -1        86 2.50000E+01 5.00000E+01 0.00000E+00
 -1        87 2.50000E+01 2.00000E+01-1.00000E+01
 -1        88 3.00000E+01 4.40000E+01-1.00000E+01
 -1        89 3.00000E+01 3.80000E+01-1.00000E+01
 -1        90 3.00000E+01 3.20000E+01-1.00000E+01
 -1        91 3.00000E+01 2.60000E+01-1.00000E+01
 -1        92 2.50000E+01 5.00000E+01-1.00000E+01
 -1        93 2.00000E+01 2.60000E+01-1.00000E+01
 -1        94 2.00000E+01 3.20000E+01-1.00000E+01
 -1        95 2.00000E+01 3.80000E+01-1.00000E+01
 -1        96 2.00000E+01 4.40000E+01-1.00000E+01
 -1        97-2.50000E+01 2.00000E+01-1.00000E+01
 -1        98-2.50000E+01 2.00000E+01 0.00000E+00
 -1        99-2.50000E+01 5.00000E+01-1.00000E+01
 -1       100-2.50000E+01 5.00000E+01 0.00000E+00
 -1       101-2.00000E+01 3.83333E+01 0.00000E+00
 -1       102-2.00000E+01 3.16667E+01 0.00000E+00
 -1       103-2.00000E+01 2.60000E+01-1.00000E+01
 -1       104-2.00000E+01 3.20000E+01-1.00000E+01
 -1       105-2.00000E+01 3.80000E+01-1.00000E+01
 -1       106-2.00000E+01 4.40000E+01-1.00000E+01
 -1       107-3.00000E+01 3.16667E+01 0.00000E+00
 -1       108-3.00000E+01 3.83333E+01 0.00000E+00
 -1       109-3.00000E+01 4.40000E+01-1.00000E+01
 -1       110-3.00000E+01 3.80000E+01-1.00000E+01
 -1       111-3.00000E+01 3.20000E+01-1.00000E+01
 -1       112-3.00000E+01 2.60000E+01-1.00000E+01
 -1       113-2.60000E+01 3.83333E+01 0.00000E+00
 -1       114-2.60000E+01 3.16667E+01 0.00000E+00
 -1       115-1.90211E+01 5.61803E+01-1.00000E+01
 -1       116-1.61803E+01 6.17557E+01-1.00000E+01
 -1       117-1.17557E+01 6.61803E+01-1.00000E+01
 -1       118-6.18034E+00 6.90211E+01-1.00000E+01
 -1       119 0.00000E+00 7.00000E+01-1.00000E+01
 -1       120 6.18034E+00 6.90211E+01-1.00000E+01
 -1       121 1.17557E+01 6.61803E+01-1.00000E+01
 -1       122 1.61803E+01 6.17557E+01-1.00000E+01
 -1       123 1.90211E+01 5.61803E+01-1.00000E+01
 -1       124 1.90211E+01 5.61803E+01 0.00000E+00
 -1       125 1.61803E+01 6.17557E+01 0.00000E+00
 -1       126 1.17557E+01 6.61803E+01 0.00000E+00
 -1       127 6.18034E+00 6.90211E+01 0.00000E+00
 -1       128-6.18034E+00 6.90211E+01 0.00000E+00
 -1       129-1.17557E+01 6.61803E+01 0.00000E+00
 -1       130-1.61803E+01 6.17557E+01 0.00000E+00
 -1       131-1.90211E+01 5.61803E+01 0.00000E+00
 -1       132 2.85317E+01 5.92705E+01-1.00000E+01
 -1       133 2.42705E+01 6.76336E+01-1.00000E+01
 -1       134 1.76336E+01 7.42705E+01-1.00000E+01
 -1       135 9.27051E+00 7.85317E+01-1.00000E+01
 -1       136 0.00000E+00 8.00000E+01-1.00000E+01
 -1       137-9.27051E+00 7.85317E+01-1.00000E+01
 -1       138-1.76336E+01 7.42705E+01-1.00000E+01
 -1       139-2.42705E+01 6.76336E+01-1.00000E+01
 -1       140-2.85317E+01 5.92705E+01-1.00000E+01
 -1       141 9.27051E+00 7.85317E+01 0.00000E+00
 -1       142 1.76336E+01 7.42705E+01 0.00000E+00
 -1       143 2.42705E+01 6.76336E+01 0.00000E+00
 -1       144 2.85317E+01 5.92705E+01 0.00000E+00
 -1       145-2.85317E+01 5.92705E+01 0.00000E+00
 -1       146-2.42705E+01 6.76336E+01 0.00000E+00
 -1       147-1.76336E+01 7.42705E+01 0.00000E+00
 -1       148-9.27051E+00 7.85317E+01 0.00000E+00
 -1       149 0.00000E+00 7.50000E+01 0.00000E+00
 -1       150-2.85317E+01 5.92705E+01 1.00000E+01
 -1       151-2.42705E+01 6.76336E+01 1.00000E+01
 -1       152-1.76336E+01 7.42705E+01 1.00000E+01
 -1       153-9.27051E+00 7.85317E+01 1.00000E+01
 -1       154 0.00000E+00 8.00000E+01 1.00000E+01
 -1       155 9.27051E+00 7.85317E+01 1.00000E+01
 -1       156 1.76336E+01 7.42705E+01 1.00000E+01
 -1       157 2.42705E+01 6.76336E+01 1.00000E+01
 -1       158 2.85317E+01 5.92705E+01 1.00000E+01
 -1       159 1.90211E+01 5.61803E+01 1.00000E+01
 -1       160 1.61803E+01 6.17557E+01 1.00000E+01
 -1       161 1.17557E+01 6.61803E+01 1.00000E+01
 -1       162 6.18034E+00 6.90211E+01 1.00000E+01
 -1       163 0.00000E+00 7.00000E+01 1.00000E+01
 -1       164-6.18034E+00 6.90211E+01 1.00000E+01
 -1       165-1.17557E+01 6.61803E+01 1.00000E+01
 -1       166-1.61803E+01 6.17557E+01 1.00000E+01
 -1       167-1.90211E+01 5.61803E+01 1.00000E+01
 -1       168 2.50000E+01 5.00000E+01 1.00000E+01
 -1       169-2.50000E+01 5.00000E+01 1.00000E+01
 -1       170 2.00000E+01 4.40000E+01 1.00000E+01
 -1       171 2.00000E+01 3.80000E+01 1.00000E+01
 -1       172 2.00000E+01 3.20000E+01 1.00000E+01
 -1       173 2.00000E+01 2.60000E+01 1.00000E+01
 -1       174 2.50000E+01 2.00000E+01 1.00000E+01
 -1       175 3.00000E+01 2.60000E+01 1.00000E+01
 -1       176 3.00000E+01 3.20000E+01 1.00000E+01
 -1       177 3.00000E+01 3.80000E+01 1.00000E+01
 -1       178 3.00000E+01 4.40000E+01 1.00000E+01
 -1       179 2.50000E+01 1.50000E+01 1.00000E+01
 -1       180 2.50000E+01 1.50000E+01 5.00000E+00
 -1       181-2.50000E+01 2.00000E+01 1.00000E+01
 -1       182-2.00000E+01 2.60000E+01 1.00000E+01
 -1       183-2.00000E+01 3.20000E+01 1.00000E+01
 -1       184-2.00000E+01 3.80000E+01 1.00000E+01
 -1       185-2.00000E+01 4.40000E+01 1.00000E+01
 -1       186-3.00000E+01 4.40000E+01 1.00000E+01
 -1       187-3.00000E+01 3.80000E+01 1.00000E+01
 -1       188-3.00000E+01 3.20000E+01 1.00000E+01
 -1       189-3.00000E+01 2.60000E+01 1.00000E+01
 -1       190-2.50000E+01 1.50000E+01 5.00000E+00
 -1       191-2.50000E+01 1.50000E+01 1.00000E+01
 -1       192-2.10000E+01 1.75000E+01 1.00000E+01
 -1       193-2.05606E+01 1.85984E+01 3.47154E+00
 -1       194-2.90000E+01 1.75000E+01 1.00000E+01
 -1       195-2.94394E+01 1.85984E+01 3.47154E+00
 -1       196 2.94394E+01 1.85984E+01-3.47154E+00
 -1       197 2.90000E+01 1.75000E+01-1.00000E+01
 -1       198 2.05606E+01 1.85984E+01-3.47154E+00
 -1       199 2.10000E+01 1.75000E+01-1.00000E+01
 -1       200 2.50000E+01 1.50000E+01-1.00000E+01
 -1       201 2.50000E+01 1.50000E+01-5.00000E+00
 -1       202 2.50000E+01 1.00000E+01 0.00000E+00
 -1       203 2.50000E+01 1.00000E+01-1.00000E+01
 -1       204-2.10000E+01 1.75000E+01-1.00000E+01
 -1       205-2.50000E+01 1.50000E+01-1.00000E+01
 -1       206-2.90000E+01 1.75000E+01-1.00000E+01
 -1       207-2.05606E+01 1.85984E+01-3.47154E+00
 -1       208-2.50000E+01 1.50000E+01-5.00000E+00
 -1       209-2.94394E+01 1.85984E+01-3.47154E+00
 -1       210-2.05606E+01 1.14016E+01 3.47154E+00
 -1       211-2.10000E+01 1.25000E+01 1.00000E+01
 -1       212-2.94394E+01 1.14016E+01 3.47154E+00
 -1       213-2.90000E+01 1.25000E+01 1.00000E+01
 -1       214-2.50000E+01 1.00000E+01 1.00000E+01
 -1       215-2.50000E+01 1.00000E+01 0.00000E+00
 -1       216-2.50000E+01 0.00000E+00 0.00000E+00
 -1       217-2.50000E+01 0.00000E+00 1.00000E+01
 -1       218 2.50000E+01 1.00000E+01 1.00000E+01
 -1       219 2.50000E+01 0.00000E+00 0.00000E+00
 -1       220 2.50000E+01 0.00000E+00 1.00000E+01
 -1       221 2.05606E+01 1.14016E+01 3.47154E+00
 -1       222 2.10000E+01 1.25000E+01 1.00000E+01
 -1       223 2.94394E+01 1.14016E+01 3.47154E+00
 -1       224 2.90000E+01 1.25000E+01 1.00000E+01
 -1       225 2.50000E+01 0.00000E+00-1.00000E+01
 -1       226-2.50000E+01 0.00000E+00-1.00000E+01
 -1       227-2.50000E+01 1.00000E+01-1.00000E+01
 -1       228-2.10000E+01 1.25000E+01-1.00000E+01
 -1       229-2.90000E+01 1.25000E+01-1.00000E+01
 -1       230-2.05606E+01 1.14016E+01-3.47154E+00
 -1       231-2.94394E+01 1.14016E+01-3.47154E+00
 -1       232 2.50000E+01 2.60000E+01-1.00000E+01
 -1       233 2.50000E+01 3.20000E+01-1.00000E+01
 -1       234 2.50000E+01 3.80000E+01-1.00000E+01
 -1       235 2.50000E+01 4.40000E+01-1.00000E+01
 -1       236-2.50000E+01 2.60000E+01-1.00000E+01
 -1       237-2.50000E+01 3.20000E+01-1.00000E+01
 -1       238-2.50000E+01 3.80000E+01-1.00000E+01
 -1       239-2.50000E+01 4.40000E+01-1.00000E+01
 -1       240 2.37764E+01 5.77254E+01 0.00000E+00
 -1       241 2.02254E+01 6.46946E+01 0.00000E+00
 -1       242 1.46946E+01 7.02254E+01 0.00000E+00
 -1       243 7.72542E+00 7.37764E+01 0.00000E+00
 -1       244-7.72542E+00 7.37764E+01 0.00000E+00
 -1       245-1.46946E+01 7.02254E+01 0.00000E+00
 -1       246-2.02254E+01 6.46946E+01 0.00000E+00
 -1       247-2.37764E+01 5.77254E+01 0.00000E+00
 -1       248 2.37764E+01 5.77254E+01-1.00000E+01
 -1       249 2.02254E+01 6.46946E+01-1.00000E+01
 -1       250 1.46946E+01 7.02254E+01-1.00000E+01
 -1       251 7.72542E+00 7.37764E+01-1.00000E+01
 -1       252 0.00000E+00 7.50000E+01-1.00000E+01
 -1       253-7.72542E+00 7.37764E+01-1.00000E+01
 -1       254-1.46946E+01 7.02254E+01-1.00000E+01
 -1       255-2.02254E+01 6.46946E+01-1.00000E+01
 -1       256-2.37764E+01 5.77254E+01-1.00000E+01
 -1       257 2.37764E+01 5.77254E+01 1.00000E+01
 -1       258 2.02254E+01 6.46946E+01 1.00000E+01
 -1       259 1.46946E+01 7.02254E+01 1.00000E+01
 -1       260 7.72542E+00 7.37764E+01 1.00000E+01
 -1       261 0.00000E+00 7.50000E+01 1.00000E+01
 -1       262-7.72542E+00 7.37764E+01 1.00000E+01
 -1       263-1.46946E+01 7.02254E+01 1.00000E+01
 -1       264-2.02254E+01 6.46946E+01 1.00000E+01
 -1       265-2.37764E+01 5.77254E+01 1.00000E+01
 -1       266 2.50000E+01 4.40000E+01 1.00000E+01
 -1       267 2.50000E+01 3.80000E+01 1.00000E+01
 -1       268 2.50000E+01 3.20000E+01 1.00000E+01
 -1       269 2.50000E+01 2.60000E+01 1.00000E+01
 -1       270-2.50000E+01 2.60000E+01 1.00000E+01
 -1       271-2.50000E+01 3.20000E+01 1.00000E+01
 -1       272-2.50000E+01 3.80000E+01 1.00000E+01
 -1       273-2.50000E+01 4.40000E+01 1.00000E+01
 -1       274-2.50000E+01 1.85984E+01 3.47154E+00
 -1       275-2.50000E+01 1.75000E+01 1.00000E+01
 -1       276 2.50000E+01 1.75000E+01-1.00000E+01
 -1       277 2.50000E+01 1.85984E+01-3.47154E+00
 -1       278-2.50000E+01 1.75000E+01-1.00000E+01
 -1       279-2.50000E+01 1.85984E+01-3.47154E+00
 -1       280-2.50000E+01 1.25000E+01 1.00000E+01
 -1       281-2.50000E+01 1.14016E+01 3.47154E+00
 -1       282 2.50000E+01 1.25000E+01 1.00000E+01
 -1       283 2.50000E+01 1.14016E+01 3.47154E+00
 -1       284-2.50000E+01 1.25000E+01-1.00000E+01
 -1       285-2.50000E+01 1.14016E+01-3.47154E+00
 -3
    3C                           116                                     1
 -1         1    1    0    1
 -2        14        87       232        93         1        79         3         5
 -1         2    1    0    1
 -2        87        11        91       232        79         2         4         3
 -1         3    1    0    1
 -2        93       232       233        94         5         3        80        83
 -1         4    1    0    1
 -2       232        91        90       233         3         4        84        80
 -1         5    1    0    1
 -2        94       233       234        95        83        80        81        82
 -1         6    1    0    1
 -2       233        90        89       234        80        84        85        81
 -1         7    1    0    1
 -2        95       234       235        96        82        81         6         7
 -1         8    1    0    1
 -2       234        89        88       235        81        85         8         6
 -1         9    1    0    1
 -2        96       235        92        13         7         6        86        10
 -1        10    1    0    1
 -2       235        88        12        92         6         8         9        86
 -1        11    1    0    1
 -2        15        97        98        18       103       236        27        23
 -1        12    1    0    1
 -2        97        16        17        98       236       112        25        27
 -1        13    1    0    1
 -2       103       236        27        23       104       237       114       102
 -1        14    1    0    1
 -2       236       112        25        27       237       111       107       114
 -1        15    1    0    1
 -2       104       237       114       102       105       238       113       101
 -1        16    1    0    1
 -2       237       111       107       114       238       110       108       113
 -1        17    1    0    1
 -2       105       238       113       101       106       239        28        24
 -1        18    1    0    1
 -2       238       110       108       113       239       109        26        28
 -1        19    1    0    1
 -2       106       239        28        24        19        99       100        22
 -1        20    1    0    1
 -2       239       109        26        28        99        20        21       100
 -1        21    1    0    1
 -2        10        86        92        13       124       240       248       123
 -1        22    1    0    1
 -2        86         9        12        92       240       144       132       248
 -1        23    1    0    1
 -2       124       240       248       123       125       241       249       122
 -1        24    1    0    1
 -2       240       144       132       248       241       143       133       249
 -1        25    1    0    1
 -2       125       241       249       122       126       242       250       121
 -1        26    1    0    1
 -2       241       143       133       249       242       142       134       250
 -1        27    1    0    1
 -2       126       242       250       121       127       243       251       120
 -1        28    1    0    1
 -2       242       142       134       250       243       141       135       251
 -1        29    1    0    1
 -2       127       243       251       120        29       149       252       119
 -1        30    1    0    1
 -2       243       141       135       251       149        30       136       252
 -1        31    1    0    1
 -2        29       149       252       119       128       244       253       118
 -1        32    1    0    1
 -2       149        30       136       252       244       148       137       253
 -1        33    1    0    1
 -2       128       244       253       118       129       245       254       117
 -1        34    1    0    1
 -2       244       148       137       253       245       147       138       254
 -1        35    1    0    1
 -2       129       245       254       117       130       246       255       116
 -1        36    1    0    1
 -2       245       147       138       254       246       146       139       255
 -1        37    1    0    1
 -2       130       246       255       116       131       247       256       115
 -1        38    1    0    1
 -2       246       146       139       255       247       145       140       256
 -1        39    1    0    1
 -2       131       247       256       115        22       100        99        19
 -1        40    1    0    1
 -2       247       145       140       256       100        21        20        99
 -1        41    1    0    1
 -2        86       240       257       168         9       144       158        32
 -1        42    1    0    1
 -2       240       241       258       257       144       143       157       158
 -1        43    1    0    1
 -2       241       242       259       258       143       142       156       157
 -1        44    1    0    1
 -2       242       243       260       259       142       141       155       156
 -1        45    1    0    1
 -2       243       149       261       260       141        30       154       155
 -1        46    1    0    1
 -2       149       244       262       261        30       148       153       154
 -1        47    1    0    1
 -2       244       245       263       262       148       147       152       153
 -1        48    1    0    1
 -2       245       246       264       263       147       146       151       152
 -1        49    1    0    1
 -2       246       247       265       264       146       145       150       151
 -1        50    1    0    1
 -2       247       100       169       265       145        21        31       150
 -1        51    1    0    1
 -2        10       124       159        34        86       240       257       168
 -1        52    1    0    1
 -2       124       125       160       159       240       241       258       257
 -1        53    1    0    1
 -2       125       126       161       160       241       242       259       258
 -1        54    1    0    1
 -2       126       127       162       161       242       243       260       259
 -1        55    1    0    1
 -2       127        29       163       162       243       149       261       260
 -1        56    1    0    1
 -2        29       128       164       163       149       244       262       261
 -1        57    1    0    1
 -2       128       129       165       164       244       245       263       262
 -1        58    1    0    1
 -2       129       130       166       165       245       246       264       263
 -1        59    1    0    1
 -2       130       131       167       166       246       247       265       264
 -1        60    1    0    1
 -2       131        22        33       167       247       100       169       265
 -1        61    1    0    1
 -2         9        86         6         8        32       168       266       178
 -1        62    1    0    1
 -2        86        10         7         6       168        34       170       266
 -1        63    1    0    1
 -2         8         6        81        85       178       266       267       177
 -1        64    1    0    1
 -2         6         7        82        81       266       170       171       267
 -1        65    1    0    1
 -2        85        81        80        84       177       267       268       176
 -1        66    1    0    1
 -2        81        82        83        80       267       171       172       268
 -1        67    1    0    1
 -2        84        80         3         4       176       268       269       175
 -1        68    1    0    1
 -2        80        83         5         3       268       172       173       269
 -1        69    1    0    1
 -2         4         3        79         2       175       269       174        36
 -1        70    1    0    1
 -2         3         5         1        79       269       173        35       174
 -1        71    1    0    1
 -2        37       179       180        40        35       174        79         1
 -1        72    1    0    1
 -2       179        38        39       180       174        36         2        79
 -1        73    1    0    1
 -2        17        98        27        25        41       181       270       189
 -1        74    1    0    1
 -2        98        18        23        27       181        42       182       270
 -1        75    1    0    1
 -2        25        27       114       107       189       270       271       188
 -1        76    1    0    1
 -2        27        23       102       114       270       182       183       271
 -1        77    1    0    1
 -2       107       114       113       108       188       271       272       187
 -1        78    1    0    1
 -2       114       102       101       113       271       183       184       272
 -1        79    1    0    1
 -2       108       113        28        26       187       272       273       186
 -1        80    1    0    1
 -2       113       101        24        28       272       184       185       273
 -1        81    1    0    1
 -2        26        28       100        21       186       273       169        31
 -1        82    1    0    1
 -2        28        24        22       100       273       185        33       169
 -1        83    1    0    1
 -2        43       190       191        46       193       274       275       192
 -1        84    1    0    1
 -2       190        44        45       191       274       195       194       275
 -1        85    1    0    1
 -2       193       274       275       192        18        98       181        42
 -1        86    1    0    1
 -2       274       195       194       275        98        17        41       181
 -1        87    1    0    1
 -2        87        79       277       276        11         2       196       197
 -1        88    1    0    1
 -2       276       277       201       200       197       196        47        48
 -1        89    1    0    1
 -2        14         1       198       199        87        79       277       276
 -1        90    1    0    1
 -2       199       198        49        50       276       277       201       200
 -1        91    1    0    1
 -2        54       203       200        50        51       202       201        49
 -1        92    1    0    1
 -2       203        53        48       200       202        52        47       201
 -1        93    1    0    1
 -2        17        98       279       209        16        97       278       206
 -1        94    1    0    1
 -2        98        18       207       279        97        15       204       278
 -1        95    1    0    1
 -2       209       279       208        58       206       278       205        56
 -1        96    1    0    1
 -2       279       207        57       208       278       204        55       205
 -1        97    1    0    1
 -2       214       215       281       280        59        60       210       211
 -1        98    1    0    1
 -2       280       281       190       191       211       210        43        46
 -1        99    1    0    1
 -2        62        61       212       213       214       215       281       280
 -1       100    1    0    1
 -2       213       212        44        45       280       281       190       191
 -1       101    1    0    1
 -2        66       216       217        65        60       215       214        59
 -1       102    1    0    1
 -2       216        63        64       217       215        61        62       214
 -1       103    1    0    1
 -2        72       219       220        71        52       202       218        68
 -1       104    1    0    1
 -2       219        69        70       220       202        51        67       218
 -1       105    1    0    1
 -2       179       180       283       282        37        40       221       222
 -1       106    1    0    1
 -2       282       283       202       218       222       221        51        67
 -1       107    1    0    1
 -2        38        39       223       224       179       180       283       282
 -1       108    1    0    1
 -2       224       223        52        68       282       283       202       218
 -1       109    1    0    1
 -2        51       202       219        69        54       203       225        74
 -1       110    1    0    1
 -2       202        52        72       219       203        53        73       225
 -1       111    1    0    1
 -2        78       226       227        77        63       216       215        61
 -1       112    1    0    1
 -2       226        75        76       227       216        66        60       215
 -1       113    1    0    1
 -2        58       208       285       231        56       205       284       229
 -1       114    1    0    1
 -2       208        57       230       285       205        55       228       284
 -1       115    1    0    1
 -2       231       285       215        61       229       284       227        77
 -1       116    1    0    1
 -2       285       230        60       215       284       228        76       227
 -3
    1PSTEP                         1           1           1          
  100CL  101 1.000000000         285                     0    1           1
 -4  DISP        4    1
 -5  D1          1    2    1    0
 -5  D2          1    2    2    0
 -5  D3          1    2    3    0
 -5  ALL         1    2    0    0    1ALL
 -1         1-5.31619E-01 1.06106E-01-1.11864E-04
 -1       285 6.47798E-01 4.02126E-02 7.13583E-06
 -1         2-5.31603E-01-2.56234E-02 8.32695E-05
 -1         3-4.65593E-01 2.72978E-02 8.69450E-06
 -1         4-4.65811E-01-2.47783E-02 8.84708E-05
 -1         5-4.65803E-01 1.05254E-01-1.05217E-04
 -1         6-2.21215E-01 2.93781E-02 3.53408E-06
 -1         7-2.21881E-01 9.44479E-02-3.36019E-05
 -1         8-2.21852E-01-1.41268E-02 2.99515E-05
 -1         9-1.69311E-01-9.81485E-03 0.00000E+00
 -1        10-1.69408E-01 8.97043E-02 0.00000E+00
 -1        11-5.31658E-01-2.61160E-02 3.08596E-04
 -1        12-1.66946E-01-9.60026E-03 2.18505E-03
 -1        13-1.66898E-01 8.99998E-02-2.52924E-03
 -1        14-5.31624E-01 1.06571E-01-3.15153E-04
 -1        15 5.31444E-01 1.06765E-01-1.88950E-04
 -1        16 5.31447E-01-2.61194E-02 2.04973E-04
 -1        17 5.31189E-01-2.53739E-02-1.73499E-09
 -1        18 5.31138E-01 1.06096E-01-1.45274E-09
 -1        19 1.66610E-01 9.00960E-02-2.51303E-03
 -1        20 1.66658E-01-9.48499E-03 2.16784E-03
 -1        21 1.68990E-01-9.68274E-03 0.00000E+00
 -1        22 1.69087E-01 8.97924E-02 0.00000E+00
 -1        23 4.65365E-01 1.05308E-01-1.27743E-09
 -1        24 2.21538E-01 9.45360E-02-3.06348E-10
 -1        25 4.65378E-01-2.46185E-02-1.63991E-09
 -1        26 2.21510E-01-1.39948E-02-6.91147E-10
 -1        27 4.65180E-01 2.74191E-02-1.48826E-09