    1C
    1UUSER                                                              
    1UDATE              13.april.2021                                   
    1UTIME              19:26:34                                        
    1UHOST                                                              
    1UPGM               CalculiX                                        
    1UVERSION           Version 2.13                             
    1UCOMPILETIME       Tue, Oct 10, 2017  8:02:00 PM                    
    1UDIR                                                               
    1UDBN                                                               
    1UMAT    1S355                                                      
    2C                          5898                                     1
 -1         1 2.00000E+01 2.00000E+01 0.00000E+00
 -1         2 3.00000E+01 2.00000E+01 0.00000E+00
 -1         3 2.60000E+01 2.50000E+01 0.00000E+00
 -1         4 3.00000E+01 2.50000E+01 0.00000E+00
 -1         5 2.00000E+01 2.50000E+01 0.00000E+00
 -1         6 2.60000E+01 4.50000E+01 0.00000E+00
 -1         7 2.00000E+01 4.50000E+01 0.00000E+00
 -1         8 3.00000E+01 4.50000E+01 0.00000E+00
 -1         9 3.00000E+01 5.00000E+01 0.00000E+00
 -1        10 2.00000E+01 5.00000E+01 0.00000E+00
 -1        11 3.00000E+01 2.00000E+01-1.00000E+01
 -1        12 3.00000E+01 5.00000E+01-1.00000E+01
 -1        13 2.00000E+01 5.00000E+01-1.00000E+01
 -1        14 2.00000E+01 2.00000E+01-1.00000E+01
 -1        15-2.00000E+01 2.00000E+01-1.00000E+01
 -1        16-3.00000E+01 2.00000E+01-1.00000E+01
 -1        17-3.00000E+01 2.00000E+01 0.00000E+00
 -1        18-2.00000E+01 2.00000E+01 0.00000E+00
 -1        19-2.00000E+01 5.00000E+01-1.00000E+01
 -1        20-3.00000E+01 5.00000E+01-1.00000E+01
 -1        21-3.00000E+01 5.00000E+01 0.00000E+00
 -1        22-2.00000E+01 5.00000E+01 0.00000E+00
 -1        23-2.00000E+01 2.50000E+01 0.00000E+00
 -1        24-2.00000E+01 4.50000E+01 0.00000E+00
 -1        25-3.00000E+01 2.50000E+01 0.00000E+00
 -1        26-3.00000E+01 4.50000E+01 0.00000E+00
 -1        27-2.60000E+01 2.50000E+01 0.00000E+00
 -1        28-2.60000E+01 4.50000E+01 0.00000E+00
 -1        29 0.00000E+00 7.00000E+01 0.00000E+00
 -1        30 0.00000E+00 8.00000E+01 0.00000E+00
 -1        31-3.00000E+01 5.00000E+01 1.00000E+01
 -1        32 3.00000E+01 5.00000E+01 1.00000E+01
 -1        33-2.00000E+01 5.00000E+01 1.00000E+01
 -1        34 2.00000E+01 5.00000E+01 1.00000E+01
 -1        35 2.00000E+01 2.00000E+01 1.00000E+01
 -1        36 3.00000E+01 2.00000E+01 1.00000E+01
 -1        37 2.20000E+01 1.50000E+01 1.00000E+01
 -1        38 2.80000E+01 1.50000E+01 1.00000E+01
 -1        39 2.80000E+01 1.50000E+01 5.00000E+00
 -1        40 2.20000E+01 1.50000E+01 5.00000E+00
 -1        41-3.00000E+01 2.00000E+01 1.00000E+01
 -1        42-2.00000E+01 2.00000E+01 1.00000E+01
 -1        43-2.20000E+01 1.50000E+01 5.00000E+00
 -1        44-2.80000E+01 1.50000E+01 5.00000E+00
 -1        45-2.80000E+01 1.50000E+01 1.00000E+01
 -1        46-2.20000E+01 1.50000E+01 1.00000E+01
 -1        47 2.80000E+01 1.50000E+01-5.00000E+00
 -1        48 2.80000E+01 1.50000E+01-1.00000E+01
 -1        49 2.20000E+01 1.50000E+01-5.00000E+00
 -1        50 2.20000E+01 1.50000E+01-1.00000E+01
 -1        51 2.00000E+01 1.00000E+01 0.00000E+00
 -1        52 3.00000E+01 1.00000E+01 0.00000E+00
 -1        53 3.00000E+01 1.00000E+01-1.00000E+01
 -1        54 2.00000E+01 1.00000E+01-1.00000E+01
 -1        55-2.20000E+01 1.50000E+01-1.00000E+01
 -1        56-2.80000E+01 1.50000E+01-1.00000E+01
 -1        57-2.20000E+01 1.50000E+01-5.00000E+00
 -1        58-2.80000E+01 1.50000E+01-5.00000E+00
 -1        59-2.00000E+01 1.00000E+01 1.00000E+01
 -1        60-2.00000E+01 1.00000E+01 0.00000E+00
 -1        61-3.00000E+01 1.00000E+01 0.00000E+00
 -1        62-3.00000E+01 1.00000E+01 1.00000E+01
 -1        63-3.00000E+01 0.00000E+00 0.00000E+00
 -1        64-3.00000E+01 0.00000E+00 1.00000E+01
 -1        65-2.00000E+01 0.00000E+00 1.00000E+01
 -1        66-2.00000E+01 0.00000E+00 0.00000E+00
 -1        67 2.00000E+01 1.00000E+01 1.00000E+01
 -1        68 3.00000E+01 1.00000E+01 1.00000E+01
 -1        69 2.00000E+01 0.00000E+00 0.00000E+00
 -1        70 2.00000E+01 0.00000E+00 1.00000E+01
 -1        71 3.00000E+01 0.00000E+00 1.00000E+01
 -1        72 3.00000E+01 0.00000E+00 0.00000E+00
 -1        73 3.00000E+01 0.00000E+00-1.00000E+01
 -1        74 2.00000E+01 0.00000E+00-1.00000E+01
 -1        75-2.00000E+01 0.00000E+00-1.00000E+01
 -1        76-2.00000E+01 1.00000E+01-1.00000E+01
 -1        77-3.00000E+01 1.00000E+01-1.00000E+01
 -1        78-3.00000E+01 0.00000E+00-1.00000E+01
 -1        79 2.20000E+01 2.00000E+01 0.00000E+00
 -1        80 2.40000E+01 2.00000E+01 0.00000E+00
 -1        81 2.60000E+01 2.00000E+01 0.00000E+00
 -1        82 2.80000E+01 2.00000E+01 0.00000E+00
 -1        83 3.00000E+01 2.16667E+01 0.00000E+00
 -1        84 3.00000E+01 2.33333E+01 0.00000E+00
 -1        85 2.40000E+01 2.50000E+01 0.00000E+00
 -1        86 2.20000E+01 2.50000E+01 0.00000E+00
 -1        87 2.80000E+01 2.50000E+01 0.00000E+00
 -1        88 2.00000E+01 2.33333E+01 0.00000E+00
 -1        89 2.00000E+01 2.16667E+01 0.00000E+00
 -1        90 2.60000E+01 2.70000E+01 0.00000E+00
 -1        91 2.60000E+01 2.90000E+01 0.00000E+00
 -1        92 2.60000E+01 3.10000E+01 0.00000E+00
 -1        93 2.60000E+01 3.30000E+01 0.00000E+00
 -1        94 2.60000E+01 3.50000E+01 0.00000E+00
 -1        95 2.60000E+01 3.70000E+01 0.00000E+00
 -1        96 2.60000E+01 3.90000E+01 0.00000E+00
 -1        97 2.60000E+01 4.10000E+01 0.00000E+00
 -1        98 2.60000E+01 4.30000E+01 0.00000E+00
 -1        99 2.40000E+01 4.50000E+01 0.00000E+00
 -1       100 2.20000E+01 4.50000E+01 0.00000E+00
 -1       101 2.00000E+01 4.30000E+01 0.00000E+00
 -1       102 2.00000E+01 4.10000E+01 0.00000E+00
 -1       103 2.00000E+01 3.90000E+01 0.00000E+00
 -1       104 2.00000E+01 3.70000E+01 0.00000E+00
 -1       105 2.00000E+01 3.50000E+01 0.00000E+00
 -1       106 2.00000E+01 3.30000E+01 0.00000E+00
 -1       107 2.00000E+01 3.10000E+01 0.00000E+00
 -1       108 2.00000E+01 2.90000E+01 0.00000E+00
 -1       109 2.00000E+01 2.70000E+01 0.00000E+00
 -1       110 3.00000E+01 2.70000E+01 0.00000E+00
 -1       111 3.00000E+01 2.90000E+01 0.00000E+00
 -1       112 3.00000E+01 3.10000E+01 0.00000E+00
 -1       113 3.00000E+01 3.30000E+01 0.00000E+00
 -1       114 3.00000E+01 3.50000E+01 0.00000E+00
 -1       115 3.00000E+01 3.70000E+01 0.00000E+00
 -1       116 3.00000E+01 3.90000E+01 0.00000E+00
 -1       117 3.00000E+01 4.10000E+01 0.00000E+00
 -1       118 3.00000E+01 4.30000E+01 0.00000E+00
 -1       119 2.80000E+01 4.50000E+01 0.00000E+00
 -1       120 3.00000E+01 4.66667E+01 0.00000E+00
 -1       121 3.00000E+01 4.83333E+01 0.00000E+00
 -1       122 2.80000E+01 5.00000E+01 0.00000E+00
 -1       123 2.60000E+01 5.00000E+01 0.00000E+00
 -1       124 2.40000E+01 5.00000E+01 0.00000E+00
 -1       125 2.20000E+01 5.00000E+01 0.00000E+00
 -1       126 2.00000E+01 4.83333E+01 0.00000E+00
 -1       127 2.00000E+01 4.66667E+01 0.00000E+00
 -1       128 2.80000E+01 2.00000E+01-1.00000E+01
 -1       129 2.60000E+01 2.00000E+01-1.00000E+01
 -1       130 2.40000E+01 2.00000E+01-1.00000E+01
 -1       131 2.20000E+01 2.00000E+01-1.00000E+01
 -1       132 3.00000E+01 4.81250E+01-1.00000E+01
 -1       133 3.00000E+01 4.62500E+01-1.00000E+01
 -1       134 3.00000E+01 4.43750E+01-1.00000E+01
 -1       135 3.00000E+01 4.25000E+01-1.00000E+01
 -1       136 3.00000E+01 4.06250E+01-1.00000E+01
 -1       137 3.00000E+01 3.87500E+01-1.00000E+01
 -1       138 3.00000E+01 3.68750E+01-1.00000E+01
 -1       139 3.00000E+01 3.50000E+01-1.00000E+01
 -1       140 3.00000E+01 3.31250E+01-1.00000E+01
 -1       141 3.00000E+01 3.12500E+01-1.00000E+01
 -1       142 3.00000E+01 2.93750E+01-1.00000E+01
 -1       143 3.00000E+01 2.75000E+01-1.00000E+01
 -1       144 3.00000E+01 2.56250E+01-1.00000E+01
 -1       145 3.00000E+01 2.37500E+01-1.00000E+01
 -1       146 3.00000E+01 2.18750E+01-1.00000E+01
 -1       147 2.20000E+01 5.00000E+01-1.00000E+01
 -1       148 2.40000E+01 5.00000E+01-1.00000E+01
 -1       149 2.60000E+01 5.00000E+01-1.00000E+01
 -1       150 2.80000E+01 5.00000E+01-1.00000E+01
 -1       151 2.00000E+01 2.18750E+01-1.00000E+01
 -1       152 2.00000E+01 2.37500E+01-1.00000E+01
 -1       153 2.00000E+01 2.56250E+01-1.00000E+01
 -1       154 2.00000E+01 2.75000E+01-1.00000E+01
 -1       155 2.00000E+01 2.93750E+01-1.00000E+01
 -1       156 2.00000E+01 3.12500E+01-1.00000E+01
 -1       157 2.00000E+01 3.31250E+01-1.00000E+01
 -1       158 2.00000E+01 3.50000E+01-1.00000E+01
 -1       159 2.00000E+01 3.68750E+01-1.00000E+01
 -1       160 2.00000E+01 3.87500E+01-1.00000E+01
 -1       161 2.00000E+01 4.06250E+01-1.00000E+01
 -1       162 2.00000E+01 4.25000E+01-1.00000E+01
 -1       163 2.00000E+01 4.43750E+01-1.00000E+01
 -1       164 2.00000E+01 4.62500E+01-1.00000E+01
 -1       165 2.00000E+01 4.81250E+01-1.00000E+01
 -1       166 2.00000E+01 5.00000E+01-2.00000E+00
 -1       167 2.00000E+01 5.00000E+01-4.00000E+00
 -1       168 2.00000E+01 5.00000E+01-6.00000E+00
 -1       169 2.00000E+01 5.00000E+01-8.00000E+00
 -1       170 2.00000E+01 2.00000E+01-8.00000E+00
 -1       171 2.00000E+01 2.00000E+01-6.00000E+00
 -1       172 2.00000E+01 2.00000E+01-4.00000E+00
 -1       173 2.00000E+01 2.00000E+01-2.00000E+00
 -1       174 3.00000E+01 5.00000E+01-8.00000E+00
 -1       175 3.00000E+01 5.00000E+01-6.00000E+00
 -1       176 3.00000E+01 5.00000E+01-4.00000E+00
 -1       177 3.00000E+01 5.00000E+01-2.00000E+00
 -1       178 3.00000E+01 2.00000E+01-2.00000E+00
 -1       179 3.00000E+01 2.00000E+01-4.00000E+00
 -1       180 3.00000E+01 2.00000E+01-6.00000E+00
 -1       181 3.00000E+01 2.00000E+01-8.00000E+00
 -1       182-2.20000E+01 2.00000E+01-1.00000E+01
 -1       183-2.40000E+01 2.00000E+01-1.00000E+01
 -1       184-2.60000E+01 2.00000E+01-1.00000E+01
 -1       185-2.80000E+01 2.00000E+01-1.00000E+01
 -1       186-3.00000E+01 2.00000E+01-8.00000E+00
 -1       187-3.00000E+01 2.00000E+01-6.00000E+00
 -1       188-3.00000E+01 2.00000E+01-4.00000E+00
 -1       189-3.00000E+01 2.00000E+01-2.00000E+00
 -1       190-2.80000E+01 2.00000E+01 0.00000E+00
 -1       191-2.60000E+01 2.00000E+01 0.00000E+00
 -1       192-2.40000E+01 2.00000E+01 0.00000E+00
 -1       193-2.20000E+01 2.00000E+01 0.00000E+00
 -1       194-2.00000E+01 2.00000E+01-2.00000E+00
 -1       195-2.00000E+01 2.00000E+01-4.00000E+00
 -1       196-2.00000E+01 2.00000E+01-6.00000E+00
 -1       197-2.00000E+01 2.00000E+01-8.00000E+00
 -1       198-2.20000E+01 5.00000E+01-1.00000E+01
 -1       199-2.40000E+01 5.00000E+01-1.00000E+01
 -1       200-2.60000E+01 5.00000E+01-1.00000E+01
 -1       201-2.80000E+01 5.00000E+01-1.00000E+01
 -1       202-3.00000E+01 5.00000E+01-8.00000E+00
 -1       203-3.00000E+01 5.00000E+01-6.00000E+00
 -1       204-3.00000E+01 5.00000E+01-4.00000E+00
 -1       205-3.00000E+01 5.00000E+01-2.00000E+00
 -1       206-2.80000E+01 5.00000E+01 0.00000E+00
 -1       207-2.60000E+01 5.00000E+01 0.00000E+00
 -1       208-2.40000E+01 5.00000E+01 0.00000E+00
 -1       209-2.20000E+01 5.00000E+01 0.00000E+00
 -1       210-2.00000E+01 5.00000E+01-2.00000E+00
 -1       211-2.00000E+01 5.00000E+01-4.00000E+00
 -1       212-2.00000E+01 5.00000E+01-6.00000E+00
 -1       213-2.00000E+01 5.00000E+01-8.00000E+00
 -1       214-2.00000E+01 2.33333E+01 0.00000E+00
 -1       215-2.00000E+01 2.16667E+01 0.00000E+00
 -1       216-2.00000E+01 4.30000E+01 0.00000E+00
 -1       217-2.00000E+01 4.10000E+01 0.00000E+00
 -1       218-2.00000E+01 3.90000E+01 0.00000E+00
 -1       219-2.00000E+01 3.70000E+01 0.00000E+00
 -1       220-2.00000E+01 3.50000E+01 0.00000E+00
 -1       221-2.00000E+01 3.30000E+01 0.00000E+00
 -1       222-2.00000E+01 3.10000E+01 0.00000E+00
 -1       223-2.00000E+01 2.90000E+01 0.00000E+00
 -1       224-2.00000E+01 2.70000E+01 0.00000E+00
 -1       225-2.00000E+01 4.83333E+01 0.00000E+00
 -1       226-2.00000E+01 4.66667E+01 0.00000E+00
 -1       227-2.00000E+01 2.18750E+01-1.00000E+01
 -1       228-2.00000E+01 2.37500E+01-1.00000E+01
 -1       229-2.00000E+01 2.56250E+01-1.00000E+01
 -1       230-2.00000E+01 2.75000E+01-1.00000E+01
 -1       231-2.00000E+01 2.93750E+01-1.00000E+01
 -1       232-2.00000E+01 3.12500E+01-1.00000E+01
 -1       233-2.00000E+01 3.31250E+01-1.00000E+01
 -1       234-2.00000E+01 3.50000E+01-1.00000E+01
 -1       235-2.00000E+01 3.68750E+01-1.00000E+01
 -1       236-2.00000E+01 3.87500E+01-1.00000E+01
 -1       237-2.00000E+01 4.06250E+01-1.00000E+01
 -1       238-2.00000E+01 4.25000E+01-1.00000E+01
 -1       239-2.00000E+01 4.43750E+01-1.00000E+01
 -1       240-2.00000E+01 4.62500E+01-1.00000E+01
 -1       241-2.00000E+01 4.81250E+01-1.00000E+01
 -1       242-3.00000E+01 2.16667E+01 0.00000E+00
 -1       243-3.00000E+01 2.33333E+01 0.00000E+00
 -1       244-3.00000E+01 2.70000E+01 0.00000E+00
 -1       245-3.00000E+01 2.90000E+01 0.00000E+00
 -1       246-3.00000E+01 3.10000E+01 0.00000E+00
 -1       247-3.00000E+01 3.30000E+01 0.00000E+00
 -1       248-3.00000E+01 3.50000E+01 0.00000E+00
 -1       249-3.00000E+01 3.70000E+01 0.00000E+00
 -1       250-3.00000E+01 3.90000E+01 0.00000E+00
 -1       251-3.00000E+01 4.10000E+01 0.00000E+00
 -1       252-3.00000E+01 4.30000E+01 0.00000E+00
 -1       253-3.00000E+01 4.66667E+01 0.00000E+00
 -1       254-3.00000E+01 4.83333E+01 0.00000E+00
 -1       255-3.00000E+01 4.81250E+01-1.00000E+01
 -1       256-3.00000E+01 4.62500E+01-1.00000E+01
 -1       257-3.00000E+01 4.43750E+01-1.00000E+01
 -1       258-3.00000E+01 4.25000E+01-1.00000E+01
 -1       259-3.00000E+01 4.06250E+01-1.00000E+01
 -1       260-3.00000E+01 3.87500E+01-1.00000E+01
 -1       261-3.00000E+01 3.68750E+01-1.00000E+01
 -1       262-3.00000E+01 3.50000E+01-1.00000E+01
 -1       263-3.00000E+01 3.31250E+01-1.00000E+01
 -1       264-3.00000E+01 3.12500E+01-1.00000E+01
 -1       265-3.00000E+01 2.93750E+01-1.00000E+01
 -1       266-3.00000E+01 2.75000E+01-1.00000E+01
 -1       267-3.00000E+01 2.56250E+01-1.00000E+01
 -1       268-3.00000E+01 2.37500E+01-1.00000E+01
 -1       269-3.00000E+01 2.18750E+01-1.00000E+01
 -1       270-2.20000E+01 2.50000E+01 0.00000E+00
 -1       271-2.40000E+01 2.50000E+01 0.00000E+00
 -1       272-2.80000E+01 2.50000E+01 0.00000E+00
 -1       273-2.60000E+01 4.30000E+01 0.00000E+00
 -1       274-2.60000E+01 4.10000E+01 0.00000E+00
 -1       275-2.60000E+01 3.90000E+01 0.00000E+00
 -1       276-2.60000E+01 3.70000E+01 0.00000E+00
 -1       277-2.60000E+01 3.50000E+01 0.00000E+00
 -1       278-2.60000E+01 3.30000E+01 0.00000E+00
 -1       279-2.60000E+01 3.10000E+01 0.00000E+00
 -1       280-2.60000E+01 2.90000E+01 0.00000E+00
 -1       281-2.60000E+01 2.70000E+01 0.00000E+00
 -1       282-2.20000E+01 4.50000E+01 0.00000E+00
 -1       283-2.40000E+01 4.50000E+01 0.00000E+00
 -1       284-2.80000E+01 4.50000E+01 0.00000E+00
 -1       285-1.99351E+01 5.16093E+01-1.00000E+01
 -1       286-1.97410E+01 5.32082E+01-1.00000E+01
 -1       287-1.94188E+01 5.47863E+01-1.00000E+01
 -1       288-1.89707E+01 5.63334E+01-1.00000E+01
 -1       289-1.83996E+01 5.78393E+01-1.00000E+01
 -1       290-1.77091E+01 5.92945E+01-1.00000E+01
 -1       291-1.69038E+01 6.06893E+01-1.00000E+01
 -1       292-1.59889E+01 6.20148E+01-1.00000E+01
 -1       293-1.49702E+01 6.32625E+01-1.00000E+01
 -1       294-1.38545E+01 6.44240E+01-1.00000E+01
 -1       295-1.26489E+01 6.54921E+01-1.00000E+01
 -1       296-1.13613E+01 6.64597E+01-1.00000E+01
 -1       297-1.00000E+01 6.73205E+01-1.00000E+01
 -1       298-8.57385E+00 6.80690E+01-1.00000E+01
 -1       299-7.09210E+00 6.87003E+01-1.00000E+01
 -1       300-5.56435E+00 6.92104E+01-1.00000E+01
 -1       301-4.00051E+00 6.95958E+01-1.00000E+01
 -1       302-2.41073E+00 6.98542E+01-1.00000E+01
 -1       303-8.05319E-01 6.99838E+01-1.00000E+01
 -1       304 8.05319E-01 6.99838E+01-1.00000E+01
 -1       305 2.41073E+00 6.98542E+01-1.00000E+01
 -1       306 4.00051E+00 6.95958E+01-1.00000E+01
 -1       307 5.56435E+00 6.92104E+01-1.00000E+01
 -1       308 7.09210E+00 6.87003E+01-1.00000E+01
 -1       309 8.57385E+00 6.80690E+01-1.00000E+01
 -1       310 1.00000E+01 6.73205E+01-1.00000E+01
 -1       311 1.13613E+01 6.64597E+01-1.00000E+01
 -1       312 1.26489E+01 6.54921E+01-1.00000E+01
 -1       313 1.38545E+01 6.44240E+01-1.00000E+01
 -1       314 1.49702E+01 6.32625E+01-1.00000E+01
 -1       315 1.59889E+01 6.20148E+01-1.00000E+01
 -1       316 1.69038E+01 6.06893E+01-1.00000E+01
 -1       317 1.77091E+01 5.92945E+01-1.00000E+01
 -1       318 1.83996E+01 5.78393E+01-1.00000E+01
 -1       319 1.89707E+01 5.63334E+01-1.00000E+01
 -1       320 1.94188E+01 5.47863E+01-1.00000E+01
 -1       321 1.97410E+01 5.32082E+01-1.00000E+01
 -1       322 1.99351E+01 5.16093E+01-1.00000E+01
 -1       323 1.99317E+01 5.16516E+01 0.00000E+00
 -1       324 1.97272E+01 5.32919E+01 0.00000E+00
 -1       325 1.93880E+01 5.49097E+01 0.00000E+00
 -1       326 1.89163E+01 5.64940E+01 0.00000E+00
 -1       327 1.83155E+01 5.80339E+01 0.00000E+00
 -1       328 1.75895E+01 5.95189E+01 0.00000E+00
 -1       329 1.67433E+01 6.09390E+01 0.00000E+00
 -1       330 1.57828E+01 6.22843E+01 0.00000E+00
 -1       331 1.47145E+01 6.35456E+01 0.00000E+00
 -1       332 1.35456E+01 6.47145E+01 0.00000E+00
 -1       333 1.22843E+01 6.57828E+01 0.00000E+00
 -1       334 1.09390E+01 6.67433E+01 0.00000E+00
 -1       335 9.51895E+00 6.75895E+01 0.00000E+00
 -1       336 8.03391E+00 6.83155E+01 0.00000E+00
 -1       337 6.49399E+00 6.89163E+01 0.00000E+00
 -1       338 4.90971E+00 6.93880E+01 0.00000E+00
 -1       339 3.29189E+00 6.97272E+01 0.00000E+00
 -1       340 1.65159E+00 6.99317E+01 0.00000E+00
 -1       341-1.56918E+00 6.99383E+01 0.00000E+00
 -1       342-3.12869E+00 6.97538E+01 0.00000E+00
 -1       343-4.66891E+00 6.94474E+01 0.00000E+00
 -1       344-6.18034E+00 6.90211E+01 0.00000E+00
 -1       345-7.65367E+00 6.84776E+01 0.00000E+00
 -1       346-9.07981E+00 6.78201E+01 0.00000E+00
 -1       347-1.04500E+01 6.70528E+01 0.00000E+00
 -1       348-1.17557E+01 6.61803E+01 0.00000E+00
 -1       349-1.29890E+01 6.52081E+01 0.00000E+00
 -1       350-1.41421E+01 6.41421E+01 0.00000E+00
 -1       351-1.52081E+01 6.29890E+01 0.00000E+00
 -1       352-1.61803E+01 6.17557E+01 0.00000E+00
 -1       353-1.70528E+01 6.04500E+01 0.00000E+00
 -1       354-1.78201E+01 5.90798E+01 0.00000E+00
 -1       355-1.84776E+01 5.76537E+01 0.00000E+00
 -1       356-1.90211E+01 5.61803E+01 0.00000E+00
 -1       357-1.94474E+01 5.46689E+01 0.00000E+00
 -1       358-1.97538E+01 5.31287E+01 0.00000E+00
 -1       359-1.99383E+01 5.15692E+01 0.00000E+00
 -1       360 2.99027E+01 5.24140E+01-1.00000E+01
 -1       361 2.96115E+01 5.48123E+01-1.00000E+01
 -1       362 2.91283E+01 5.71795E+01-1.00000E+01
 -1       363 2.84561E+01 5.95000E+01-1.00000E+01
 -1       364 2.75994E+01 6.17590E+01-1.00000E+01
 -1       365 2.65637E+01 6.39417E+01-1.00000E+01
 -1       366 2.53557E+01 6.60340E+01-1.00000E+01
 -1       367 2.39833E+01 6.80223E+01-1.00000E+01
 -1       368 2.24553E+01 6.98937E+01-1.00000E+01
 -1       369 2.07817E+01 7.16361E+01-1.00000E+01
 -1       370 1.89734E+01 7.32382E+01-1.00000E+01
 -1       371 1.70419E+01 7.46895E+01-1.00000E+01
 -1       372 1.50000E+01 7.59808E+01-1.00000E+01
 -1       373 1.28608E+01 7.71035E+01-1.00000E+01
 -1       374 1.06381E+01 7.80505E+01-1.00000E+01
 -1       375 8.34652E+00 7.88155E+01-1.00000E+01
 -1       376 6.00077E+00 7.93937E+01-1.00000E+01
 -1       377 3.61610E+00 7.97813E+01-1.00000E+01
 -1       378 1.20798E+00 7.99757E+01-1.00000E+01
 -1       379-1.20798E+00 7.99757E+01-1.00000E+01
 -1       380-3.61610E+00 7.97813E+01-1.00000E+01
 -1       381-6.00077E+00 7.93937E+01-1.00000E+01
 -1       382-8.34652E+00 7.88155E+01-1.00000E+01
 -1       383-1.06381E+01 7.80505E+01-1.00000E+01
 -1       384-1.28608E+01 7.71035E+01-1.00000E+01
 -1       385-1.50000E+01 7.59808E+01-1.00000E+01
 -1       386-1.70419E+01 7.46895E+01-1.00000E+01
 -1       387-1.89734E+01 7.32382E+01-1.00000E+01
 -1       388-2.07817E+01 7.16361E+01-1.00000E+01
 -1       389-2.24553E+01 6.98937E+01-1.00000E+01
 -1       390-2.39833E+01 6.80223E+01-1.00000E+01
 -1       391-2.53557E+01 6.60340E+01-1.00000E+01
 -1       392-2.65637E+01 6.39417E+01-1.00000E+01
 -1       393-2.75994E+01 6.17590E+01-1.00000E+01
 -1       394-2.84561E+01 5.95000E+01-1.00000E+01
 -1       395-2.91283E+01 5.71795E+01-1.00000E+01
 -1       396-2.96115E+01 5.48123E+01-1.00000E+01
 -1       397-2.99027E+01 5.24140E+01-1.00000E+01
 -1       398 2.47738E+00 7.98975E+01 0.00000E+00
 -1       399 4.93784E+00 7.95908E+01 0.00000E+00
 -1       400 7.36456E+00 7.90820E+01 0.00000E+00
 -1       401 9.74098E+00 7.83745E+01 0.00000E+00
 -1       402 1.20509E+01 7.74732E+01 0.00000E+00
 -1       403 1.42784E+01 7.63842E+01 0.00000E+00
 -1       404 1.64084E+01 7.51150E+01 0.00000E+00
 -1       405 1.84264E+01 7.36742E+01 0.00000E+00
 -1       406 2.03184E+01 7.20717E+01 0.00000E+00
 -1       407 2.20717E+01 7.03185E+01 0.00000E+00
 -1       408 2.36742E+01 6.84264E+01 0.00000E+00
 -1       409 2.51150E+01 6.64084E+01 0.00000E+00
 -1       410 2.63842E+01 6.42784E+01 0.00000E+00
 -1       411 2.74732E+01 6.20509E+01 0.00000E+00
 -1       412 2.83745E+01 5.97410E+01 0.00000E+00
 -1       413 2.90820E+01 5.73646E+01 0.00000E+00
 -1       414 2.95908E+01 5.49378E+01 0.00000E+00
 -1       415 2.98975E+01 5.24774E+01 0.00000E+00
 -1       416-2.99075E+01 5.23538E+01 0.00000E+00
 -1       417-2.96306E+01 5.46930E+01 0.00000E+00
 -1       418-2.91711E+01 5.70034E+01 0.00000E+00
 -1       419-2.85317E+01 5.92705E+01 0.00000E+00
 -1       420-2.77164E+01 6.14805E+01 0.00000E+00
 -1       421-2.67302E+01 6.36197E+01 0.00000E+00
 -1       422-2.55792E+01 6.56750E+01 0.00000E+00
 -1       423-2.42705E+01 6.76336E+01 0.00000E+00
 -1       424-2.28122E+01 6.94834E+01 0.00000E+00
 -1       425-2.12132E+01 7.12132E+01 0.00000E+00
 -1       426-1.94834E+01 7.28122E+01 0.00000E+00
 -1       427-1.76336E+01 7.42705E+01 0.00000E+00
 -1       428-1.56750E+01 7.55792E+01 0.00000E+00
 -1       429-1.36197E+01 7.67302E+01 0.00000E+00
 -1       430-1.14805E+01 7.77164E+01 0.00000E+00
 -1       431-9.27051E+00 7.85317E+01 0.00000E+00
 -1       432-7.00336E+00 7.91711E+01 0.00000E+00
 -1       433-4.69303E+00 7.96307E+01 0.00000E+00
 -1       434-2.35377E+00 7.99075E+01 0.00000E+00
 -1       435 0.00000E+00 7.80000E+01 0.00000E+00
 -1       436 0.00000E+00 7.60000E+01 0.00000E+00
 -1       437 0.00000E+00 7.40000E+01 0.00000E+00
 -1       438 0.00000E+00 7.20000E+01 0.00000E+00
 -1       439-3.00000E+01 5.00000E+01 2.50000E+00
 -1       440-3.00000E+01 5.00000E+01 5.00000E+00
 -1       441-3.00000E+01 5.00000E+01 7.50000E+00
 -1       442-2.99027E+01 5.24140E+01 1.00000E+01
 -1       443-2.96115E+01 5.48123E+01 1.00000E+01
 -1       444-2.91283E+01 5.71795E+01 1.00000E+01
 -1       445-2.84561E+01 5.95000E+01 1.00000E+01
 -1       446-2.75994E+01 6.17590E+01 1.00000E+01
 -1       447-2.65637E+01 6.39417E+01 1.00000E+01
 -1       448-2.53557E+01 6.60340E+01 1.00000E+01
 -1       449-2.39833E+01 6.80223E+01 1.00000E+01
 -1       450-2.24553E+01 6.98937E+01 1.00000E+01
 -1       451-2.07817E+01 7.16361E+01 1.00000E+01
 -1       452-1.89734E+01 7.32382E+01 1.00000E+01
 -1       453-1.70419E+01 7.46895E+01 1.00000E+01
 -1       454-1.50000E+01 7.59808E+01 1.00000E+01
 -1       455-1.28608E+01 7.71035E+01 1.00000E+01
 -1       456-1.06381E+01 7.80505E+01 1.00000E+01
 -1       457-8.34652E+00 7.88155E+01 1.00000E+01
 -1       458-6.00077E+00 7.93937E+01 1.00000E+01
 -1       459-3.61610E+00 7.97813E+01 1.00000E+01
 -1       460-1.20798E+00 7.99757E+01 1.00000E+01
 -1       461 1.20798E+00 7.99757E+01 1.00000E+01
 -1       462 3.61610E+00 7.97813E+01 1.00000E+01
 -1       463 6.00077E+00 7.93937E+01 1.00000E+01
 -1       464 8.34652E+00 7.88155E+01 1.00000E+01
 -1       465 1.06381E+01 7.80505E+01 1.00000E+01
 -1       466 1.28608E+01 7.71035E+01 1.00000E+01
 -1       467 1.50000E+01 7.59808E+01 1.00000E+01
 -1       468 1.70419E+01 7.46895E+01 1.00000E+01
 -1       469 1.89734E+01 7.32382E+01 1.00000E+01
 -1       470 2.07817E+01 7.16361E+01 1.00000E+01
 -1       471 2.24553E+01 6.98937E+01 1.00000E+01
 -1       472 2.39833E+01 6.80223E+01 1.00000E+01
 -1       473 2.53557E+01 6.60340E+01 1.00000E+01
 -1       474 2.65637E+01 6.39417E+01 1.00000E+01
 -1       475 2.75994E+01 6.17590E+01 1.00000E+01
 -1       476 2.84561E+01 5.95000E+01 1.00000E+01
 -1       477 2.91283E+01 5.71795E+01 1.00000E+01
 -1       478 2.96115E+01 5.48123E+01 1.00000E+01
 -1       479 2.99027E+01 5.24140E+01 1.00000E+01
 -1       480 3.00000E+01 5.00000E+01 7.50000E+00
 -1       481 3.00000E+01 5.00000E+01 5.00000E+00
 -1       482 3.00000E+01 5.00000E+01 2.50000E+00
 -1       483-2.00000E+01 5.00000E+01 7.50000E+00
 -1       484-2.00000E+01 5.00000E+01 5.00000E+00
 -1       485-2.00000E+01 5.00000E+01 2.50000E+00
 -1       486 1.99351E+01 5.16093E+01 1.00000E+01
 -1       487 1.97410E+01 5.32082E+01 1.00000E+01
 -1       488 1.94188E+01 5.47863E+01 1.00000E+01
 -1       489 1.89707E+01 5.63334E+01 1.00000E+01
 -1       490 1.83996E+01 5.78393E+01 1.00000E+01
 -1       491 1.77091E+01 5.92945E+01 1.00000E+01
 -1       492 1.69038E+01 6.06893E+01 1.00000E+01
 -1       493 1.59889E+01 6.20148E+01 1.00000E+01
 -1       494 1.49702E+01 6.32625E+01 1.00000E+01
 -1       495 1.38545E+01 6.44240E+01 1.00000E+01
 -1       496 1.26489E+01 6.54921E+01 1.00000E+01
 -1       497 1.13613E+01 6.64597E+01 1.00000E+01
 -1       498 1.00000E+01 6.73205E+01 1.00000E+01
 -1       499 8.57385E+00 6.80690E+01 1.00000E+01
 -1       500 7.09210E+00 6.87003E+01 1.00000E+01
 -1       501 5.56435E+00 6.92104E+01 1.00000E+01
 -1       502 4.00051E+00 6.95958E+01 1.00000E+01
 -1       503 2.41073E+00 6.98542E+01 1.00000E+01
 -1       504 8.05319E-01 6.99838E+01 1.00000E+01
 -1       505-8.05319E-01 6.99838E+01 1.00000E+01
 -1       506-2.41073E+00 6.98542E+01 1.00000E+01
 -1       507-4.00051E+00 6.95958E+01 1.00000E+01
 -1       508-5.56435E+00 6.92104E+01 1.00000E+01
 -1       509-7.09210E+00 6.87003E+01 1.00000E+01
 -1       510-8.57385E+00 6.80690E+01 1.00000E+01
 -1       511-1.00000E+01 6.73205E+01 1.00000E+01
 -1       512-1.13613E+01 6.64597E+01 1.00000E+01
 -1       513-1.26489E+01 6.54921E+01 1.00000E+01
 -1       514-1.38545E+01 6.44240E+01 1.00000E+01
 -1       515-1.49702E+01 6.32625E+01 1.00000E+01
 -1       516-1.59889E+01 6.20148E+01 1.00000E+01
 -1       517-1.69038E+01 6.06893E+01 1.00000E+01
 -1       518-1.77091E+01 5.92945E+01 1.00000E+01
 -1       519-1.83996E+01 5.78393E+01 1.00000E+01
 -1       520-1.89707E+01 5.63334E+01 1.00000E+01
 -1       521-1.94188E+01 5.47863E+01 1.00000E+01
 -1       522-1.97410E+01 5.32082E+01 1.00000E+01
 -1       523-1.99351E+01 5.16093E+01 1.00000E+01
 -1       524 2.00000E+01 5.00000E+01 2.50000E+00
 -1       525 2.00000E+01 5.00000E+01 5.00000E+00
 -1       526 2.00000E+01 5.00000E+01 7.50000E+00
 -1       527 2.20000E+01 5.00000E+01 1.00000E+01
 -1       528 2.40000E+01 5.00000E+01 1.00000E+01
 -1       529 2.60000E+01 5.00000E+01 1.00000E+01
 -1       530 2.80000E+01 5.00000E+01 1.00000E+01
 -1       531-2.80000E+01 5.00000E+01 1.00000E+01
 -1       532-2.60000E+01 5.00000E+01 1.00000E+01
 -1       533-2.40000E+01 5.00000E+01 1.00000E+01
 -1       534-2.20000E+01 5.00000E+01 1.00000E+01
 -1       535 2.00000E+01 4.81250E+01 1.00000E+01
 -1       536 2.00000E+01 4.62500E+01 1.00000E+01
 -1       537 2.00000E+01 4.43750E+01 1.00000E+01
 -1       538 2.00000E+01 4.25000E+01 1.00000E+01
 -1       539 2.00000E+01 4.06250E+01 1.00000E+01
 -1       540 2.00000E+01 3.87500E+01 1.00000E+01
 -1       541 2.00000E+01 3.68750E+01 1.00000E+01
 -1       542 2.00000E+01 3.50000E+01 1.00000E+01
 -1       543 2.00000E+01 3.31250E+01 1.00000E+01
 -1       544 2.00000E+01 3.12500E+01 1.00000E+01
 -1       545 2.00000E+01 2.93750E+01 1.00000E+01
 -1       546 2.00000E+01 2.75000E+01 1.00000E+01
 -1       547 2.00000E+01 2.56250E+01 1.00000E+01
 -1       548 2.00000E+01 2.37500E+01 1.00000E+01
 -1       549 2.00000E+01 2.18750E+01 1.00000E+01
 -1       550 2.20000E+01 2.00000E+01 1.00000E+01
 -1       551 2.40000E+01 2.00000E+01 1.00000E+01
 -1       552 2.60000E+01 2.00000E+01 1.00000E+01
 -1       553 2.80000E+01 2.00000E+01 1.00000E+01
 -1       554 3.00000E+01 2.18750E+01 1.00000E+01
 -1       555 3.00000E+01 2.37500E+01 1.00000E+01
 -1       556 3.00000E+01 2.56250E+01 1.00000E+01
 -1       557 3.00000E+01 2.75000E+01 1.00000E+01
 -1       558 3.00000E+01 2.93750E+01 1.00000E+01
 -1       559 3.00000E+01 3.12500E+01 1.00000E+01
 -1       560 3.00000E+01 3.31250E+01 1.00000E+01
 -1       561 3.00000E+01 3.50000E+01 1.00000E+01
 -1       562 3.00000E+01 3.68750E+01 1.00000E+01
 -1       563 3.00000E+01 3.87500E+01 1.00000E+01
 -1       564 3.00000E+01 4.06250E+01 1.00000E+01
 -1       565 3.00000E+01 4.25000E+01 1.00000E+01
 -1       566 3.00000E+01 4.43750E+01 1.00000E+01
 -1       567 3.00000E+01 4.62500E+01 1.00000E+01
 -1       568 3.00000E+01 4.81250E+01 1.00000E+01
 -1       569 3.00000E+01 2.00000E+01 7.50000E+00
 -1       570 3.00000E+01 2.00000E+01 5.00000E+00
 -1       571 3.00000E+01 2.00000E+01 2.50000E+00
 -1       572 2.00000E+01 2.00000E+01 2.50000E+00
 -1       573 2.00000E+01 2.00000E+01 5.00000E+00
 -1       574 2.00000E+01 2.00000E+01 7.50000E+00
 -1       575 2.32000E+01 1.50000E+01 1.00000E+01
 -1       576 2.44000E+01 1.50000E+01 1.00000E+01
 -1       577 2.56000E+01 1.50000E+01 1.00000E+01
 -1       578 2.68000E+01 1.50000E+01 1.00000E+01
 -1       579 2.80000E+01 1.50000E+01 8.75000E+00
 -1       580 2.80000E+01 1.50000E+01 7.50000E+00
 -1       581 2.80000E+01 1.50000E+01 6.25000E+00
 -1       582 2.68000E+01 1.50000E+01 5.00000E+00
 -1       583 2.56000E+01 1.50000E+01 5.00000E+00